# epsilon and Z* of atoms 1 2 3
   6.64926200    0.00000000    0.00000000    0.00000000    6.64926200    0.00000000    0.00000000    0.00000000    6.11385800
   2.52014000    0.00000000    0.00000000    0.00000000    2.52014000    0.00000000    0.00000000    0.00000000    2.55590000
   7.57259000    0.0000000     0.00000000    0.00000000    7.5725900     0.0000000     0.00000000   0.00000000     6.72493000
  -6.0885400    0.00000000    0.00000000    0.00000000    -2.0270600    0.00000000    0.00000000    0.00000000    -1.9174100
  -1.9771300    0.00000000    0.00000000    0.00000000    -1.9771300    0.00000000    0.00000000    0.00000000     -5.4465300
