   5   40
1 1
     4.704595199557503    -0.000000000000000    -0.000000000000000
     0.000000000000000     4.704595199557503    -0.000000000000002
    -0.000000000000000    -0.000000000000000     4.485885335299562
1 2
    -1.890730948258053    -0.000000000000000     0.000000000000000
    -0.000000000000000     0.547714801002520    -0.000000000000000
     0.000000000000000    -0.000000000000000     0.570971952577310
1 3
     0.547714801002520    -0.000000000000000    -0.000000000000000
     0.000000000000000    -1.890730948258053    -0.000000000000000
    -0.000000000000000     0.000000000000000     0.570971952577310
1 4
    -0.486079374004213    -0.000000000000000     0.000000000000000
    -0.000000000000000    -0.486079374004213    -0.000000000000000
     0.000000000000000     0.000000000000000     0.258518497194545
1 5
     0.521468517589092    -0.000000000000000    -0.000000000000000
     0.000000000000000     0.521468517589092     0.000000000000001
    -0.000000000000000     0.000000000000000    -1.768284494449445
1 6
    -0.476245653478604    -0.000000000000000     0.000000000000000
    -0.000000000000000     0.224721916436587     0.000000000000000
     0.000000000000000     0.000000000000000    -0.508247112730179
1 7
     0.224721916436587    -0.000000000000000    -0.000000000000000
     0.000000000000000    -0.476245653478604     0.000000000000000
    -0.000000000000000     0.000000000000000    -0.508247112730179
1 8
    -0.211646850063797    -0.000000000000000     0.000000000000000
    -0.000000000000000    -0.211646850063797     0.000000000000000
     0.000000000000000    -0.000000000000000    -0.240806037871811
1 9
    -0.309593042603971    -1.159123009408847    -0.970640279683619
    -1.159123009408846    -0.309593042603971    -0.970640279683619
    -1.117400234436002    -1.117400234436002    -0.377423946932123
1 10
    -0.309593042603971     1.159123009408847     0.970640279683619
     1.159123009408846    -0.309593042603971    -0.970640279683619
     1.117400234436002    -1.117400234436002    -0.377423946932123
1 11
    -0.309593042603971     1.159123009408847    -0.970640279683619
     1.159123009408847    -0.309593042603972     0.970640279683619
    -1.117400234436002     1.117400234436002    -0.377423946932123
1 12
    -0.309593042603971    -1.159123009408847     0.970640279683619
    -1.159123009408847    -0.309593042603972     0.970640279683619
     1.117400234436002     1.117400234436002    -0.377423946932123
1 13
    -0.352607290262666    -1.060605254565362     1.261904512200948
    -1.060605254565362    -0.352607290262666     1.261904512200949
     1.116879806321487     1.116879806321487    -0.358620080521345
1 14
    -0.352607290262666     1.060605254565362    -1.261904512200948
     1.060605254565362    -0.352607290262666     1.261904512200949
    -1.116879806321487     1.116879806321487    -0.358620080521344
1 15
    -0.352607290262666     1.060605254565362     1.261904512200948
     1.060605254565362    -0.352607290262665    -1.261904512200948
     1.116879806321487    -1.116879806321488    -0.358620080521344
1 16
    -0.352607290262666    -1.060605254565362    -1.261904512200948
    -1.060605254565362    -0.352607290262665    -1.261904512200948
    -1.116879806321487    -1.116879806321487    -0.358620080521344
1 17
    -0.887697864690520     0.000000000000000    -0.000000000000000
    -0.000000000000000     0.017580615445362     0.382197480235645
     0.000000000000000     0.362570068477175    -0.019870349116948
1 18
     0.572455436180187    -0.000000000000000    -0.000000000000000
     0.000000000000000    -0.017022229344683     0.106227257836854
    -0.000000000000000     0.142448459181037    -0.089311783308099
1 19
    -0.887697864690520    -0.000000000000000    -0.000000000000000
    -0.000000000000000     0.017580615445362    -0.382197480235645
     0.000000000000000    -0.362570068477175    -0.019870349116948
1 20
     0.572455436180187     0.000000000000000    -0.000000000000000
     0.000000000000000    -0.017022229344683    -0.106227257836854
    -0.000000000000000    -0.142448459181037    -0.089311783308099
1 21
    -0.937294515847271     0.000000000000000    -0.000000000000000
    -0.000000000000000     0.227386358276690    -0.543639437140165
     0.000000000000000    -0.536028320235383     0.308593335620740
1 22
     0.710190199529597    -0.000000000000000     0.000000000000000
     0.000000000000000    -0.016587414657866    -0.159150365987511
    -0.000000000000000    -0.125313648736842     0.056104608078109
1 23
    -0.937294515847271    -0.000000000000000    -0.000000000000000
    -0.000000000000000     0.227386358276690     0.543639437140165
     0.000000000000000     0.536028320235383     0.308593335620740
1 24
     0.710190199529597     0.000000000000000     0.000000000000000
     0.000000000000000    -0.016587414657866     0.159150365987511
    -0.000000000000000     0.125313648736842     0.056104608078109
1 25
     0.017580615445362    -0.000000000000000     0.382197480235645
    -0.000000000000000    -0.887697864690520     0.000000000000000
     0.362570068477175     0.000000000000000    -0.019870349116948
1 26
     0.017580615445362    -0.000000000000000    -0.382197480235645
     0.000000000000000    -0.887697864690520     0.000000000000000
    -0.362570068477175     0.000000000000000    -0.019870349116948
1 27
    -0.017022229344683    -0.000000000000000     0.106227257836854
    -0.000000000000000     0.572455436180187     0.000000000000000
     0.142448459181037     0.000000000000000    -0.089311783308099
1 28
    -0.017022229344683    -0.000000000000000    -0.106227257836854
     0.000000000000000     0.572455436180187     0.000000000000000
    -0.142448459181037     0.000000000000000    -0.089311783308099
1 29
     0.227386358276690    -0.000000000000000    -0.543639437140165
     0.000000000000000    -0.937294515847271    -0.000000000000000
    -0.536028320235383     0.000000000000000     0.308593335620740
1 30
     0.227386358276690    -0.000000000000000     0.543639437140165
    -0.000000000000000    -0.937294515847271    -0.000000000000000
     0.536028320235383     0.000000000000000     0.308593335620740
1 31
    -0.016587414657866    -0.000000000000000    -0.159150365987511
     0.000000000000000     0.710190199529597    -0.000000000000000
    -0.125313648736842     0.000000000000000     0.056104608078109
1 32
    -0.016587414657866    -0.000000000000000     0.159150365987511
    -0.000000000000000     0.710190199529597    -0.000000000000000
     0.125313648736842     0.000000000000000     0.056104608078109
1 33
     0.110880594047042     0.437291100684541    -0.255870459455850
     0.437291100684541     0.110880594047042    -0.255870459455849
    -0.051800062013907    -0.051800062013907    -0.866490168094702
1 34
     0.110880594047042    -0.437291100684541     0.255870459455850
    -0.437291100684541     0.110880594047042    -0.255870459455849
     0.051800062013907    -0.051800062013907    -0.866490168094702
1 35
     0.110880594047042    -0.437291100684541    -0.255870459455850
    -0.437291100684541     0.110880594047042     0.255870459455850
    -0.051800062013907     0.051800062013907    -0.866490168094702
1 36
     0.110880594047042     0.437291100684541     0.255870459455850
     0.437291100684541     0.110880594047042     0.255870459455850
     0.051800062013907     0.051800062013907    -0.866490168094702
1 37
    -0.016634777764620     0.129976472794948     0.026756594180183
     0.129976472794948    -0.016634777764620     0.026756594180183
     0.015901404588986     0.015901404588986     0.631827814831405
1 38
    -0.016634777764620    -0.129976472794948    -0.026756594180183
    -0.129976472794948    -0.016634777764620     0.026756594180183
    -0.015901404588986     0.015901404588986     0.631827814831405
1 39
    -0.016634777764620    -0.129976472794948     0.026756594180183
    -0.129976472794948    -0.016634777764620    -0.026756594180184
     0.015901404588986    -0.015901404588986     0.631827814831405
1 40
    -0.016634777764620     0.129976472794948    -0.026756594180183
     0.129976472794948    -0.016634777764620    -0.026756594180184
    -0.015901404588986    -0.015901404588986     0.631827814831405
9 1
    -0.309496179708956    -1.159248361390632    -1.117690974406605
    -1.159248361390632    -0.309496179708956    -1.117690974406605
    -0.970996521584653    -0.970996521584653    -0.378027046763985
9 2
    -0.309496179708956     1.159248361390632     1.117690974406605
     1.159248361390632    -0.309496179708956    -1.117690974406605
     0.970996521584653    -0.970996521584653    -0.378027046763985
9 3
    -0.309496179708956     1.159248361390632    -1.117690974406605
     1.159248361390631    -0.309496179708955     1.117690974406605
    -0.970996521584653     0.970996521584653    -0.378027046763986
9 4
    -0.309496179708956    -1.159248361390632     1.117690974406605
    -1.159248361390631    -0.309496179708955     1.117690974406605
     0.970996521584653     0.970996521584653    -0.378027046763985
9 5
    -0.352523247456696    -1.060633387538547     1.117154667348172
    -1.060633387538547    -0.352523247456696     1.117154667348172
     1.262018167983111     1.262018167983111    -0.359402565693185
9 6
    -0.352523247456696     1.060633387538547    -1.117154667348172
     1.060633387538547    -0.352523247456696     1.117154667348171
    -1.262018167983111     1.262018167983111    -0.359402565693185
9 7
    -0.352523247456696     1.060633387538547     1.117154667348172
     1.060633387538547    -0.352523247456697    -1.117154667348172
     1.262018167983111    -1.262018167983111    -0.359402565693185
9 8
    -0.352523247456696    -1.060633387538547    -1.117154667348172
    -1.060633387538547    -0.352523247456697    -1.117154667348172
    -1.262018167983111    -1.262018167983111    -0.359402565693185
9 9
    18.346968318321832    -0.000000000000000    -0.000000000000000
     0.000000000000000    18.346968318321832     0.000000000000007
     0.000000000000000    -0.000000000000000    20.130025369232996
9 10
   -15.176481952206746    -0.000000000000000    -0.000000000000000
    -0.000000000000000     0.222972686508949     0.000000000000000
    -0.000000000000000    -0.000000000000000     0.222714447106462
9 11
     0.222972686508949    -0.000000000000000    -0.000000000000000
     0.000000000000000   -15.176481952206743    -0.000000000000000
     0.000000000000000    -0.000000000000000     0.222714447106461
9 12
    -0.278109040588000    -0.000000000000000     0.000000000000000
    -0.000000000000000    -0.278109040588000     0.000000000000000
    -0.000000000000000    -0.000000000000000     0.317486776331104
9 13
     0.213051362041525    -0.000000000000000    -0.000000000000000
     0.000000000000000     0.213051362041525    -0.000000000000005
     0.000000000000000    -0.000000000000000   -12.797206926578582
9 14
    -0.244702737442267    -0.000000000000000     0.000000000000000
    -0.000000000000000     0.286254782722525     0.000000000000000
    -0.000000000000000     0.000000000000000    -0.216342230489482
9 15
     0.286254782722525    -0.000000000000000     0.000000000000000
     0.000000000000000    -0.244702737442267    -0.000000000000000
     0.000000000000000    -0.000000000000000    -0.216342230489483
9 16
    -0.294795810935974    -0.000000000000000    -0.000000000000000
    -0.000000000000000    -0.294795810935974    -0.000000000000000
    -0.000000000000000    -0.000000000000000    -0.292009845482679
9 17
    -0.308840574599676    -0.000000000000000    -0.299339464162100
    -0.000000000000000    -1.545434669887570    -0.000000000000001
    -0.483131936466583     0.000000000000000    -1.749221028314765
9 18
    -0.308840574599676    -0.000000000000000     0.299339464162100
     0.000000000000000    -1.545434669887570    -0.000000000000001
     0.483131936466583     0.000000000000000    -1.749221028314766
9 19
     0.065466853055199    -0.000000000000000    -0.027233786383570
     0.000000000000000     1.647852936823362    -0.000000000000000
     0.064190288187125    -0.000000000000000    -0.142227825744294
9 20
     0.065466853055199    -0.000000000000000     0.027233786383570
    -0.000000000000000     1.647852936823362    -0.000000000000000
    -0.064190288187125    -0.000000000000000    -0.142227825744294
9 21
     0.046726375664740    -0.000000000000000    -0.022590421353751
     0.000000000000000    -0.146174655304828     0.000000000000000
     0.063191382150126    -0.000000000000000     1.430448540031277
9 22
     0.046726375664740    -0.000000000000000     0.022590421353751
    -0.000000000000000    -0.146174655304828     0.000000000000000
    -0.063191382150126    -0.000000000000000     1.430448540031277
9 23
    -0.000928744228681    -0.000000000000000    -0.016849514256144
     0.000000000000000     0.140323709109574     0.000000000000000
     0.008107094014572    -0.000000000000000     0.149194014954701
9 24
    -0.000928744228681    -0.000000000000000     0.016849514256144
    -0.000000000000000     0.140323709109574     0.000000000000000
    -0.008107094014572    -0.000000000000000     0.149194014954701
9 25
    -1.545434669887570    -0.000000000000000     0.000000000000000
    -0.000000000000000    -0.308840574599676    -0.299339464162100
    -0.000000000000000    -0.483131936466583    -1.749221028314765
9 26
     1.647852936823362    -0.000000000000000    -0.000000000000000
     0.000000000000000     0.065466853055199    -0.027233786383570
     0.000000000000000     0.064190288187125    -0.142227825744294
9 27
    -1.545434669887570     0.000000000000000     0.000000000000000
    -0.000000000000000    -0.308840574599676     0.299339464162099
    -0.000000000000000     0.483131936466583    -1.749221028314766
9 28
     1.647852936823362     0.000000000000000    -0.000000000000000
     0.000000000000000     0.065466853055199     0.027233786383570
     0.000000000000000    -0.064190288187125    -0.142227825744294
9 29
    -0.146174655304828    -0.000000000000000     0.000000000000000
    -0.000000000000000     0.046726375664740    -0.022590421353751
    -0.000000000000000     0.063191382150126     1.430448540031277
9 30
     0.140323709109574     0.000000000000000     0.000000000000000
     0.000000000000000    -0.000928744228681    -0.016849514256144
     0.000000000000000     0.008107094014572     0.149194014954701
9 31
    -0.146174655304828     0.000000000000000     0.000000000000000
    -0.000000000000000     0.046726375664740     0.022590421353752
    -0.000000000000000    -0.063191382150126     1.430448540031277
9 32
     0.140323709109574    -0.000000000000000     0.000000000000000
     0.000000000000000    -0.000928744228681     0.016849514256144
     0.000000000000000    -0.008107094014572     0.149194014954701
9 33
    -1.431415646819300    -0.000000000000000    -0.000000000000000
    -0.000000000000000    -1.431415646819300     0.000000000000001
     0.000000000000000     0.000000000000000     3.679814677252316
9 34
     1.452562383701016    -0.000000000000000    -0.000000000000000
     0.000000000000000    -0.166735941453433     0.000000000000000
     0.000000000000000    -0.000000000000000     0.142577644709632
9 35
    -0.166735941453433    -0.000000000000000     0.000000000000000
    -0.000000000000000     1.452562383701015     0.000000000000000
    -0.000000000000000     0.000000000000000     0.142577644709632
9 36
     0.160788132363163    -0.000000000000000    -0.000000000000000
     0.000000000000000     0.160788132363163     0.000000000000000
    -0.000000000000000    -0.000000000000000     0.097355337701269
9 37
    -1.897663055296203    -0.000000000000000    -0.000000000000000
    -0.000000000000000    -1.897663055296203    -0.000000000000003
     0.000000000000000     0.000000000000000    -6.898633604096065
9 38
     1.668929163215323    -0.000000000000000    -0.000000000000000
     0.000000000000000    -0.142966071907431    -0.000000000000000
     0.000000000000000     0.000000000000000    -0.106295116699064
9 39
    -0.142966071907431    -0.000000000000000    -0.000000000000000
    -0.000000000000000     1.668929163215323    -0.000000000000000
     0.000000000000000    -0.000000000000000    -0.106295116699064
9 40
     0.131442948536400    -0.000000000000000     0.000000000000000
    -0.000000000000000     0.131442948536400    -0.000000000000000
     0.000000000000000    -0.000000000000000    -0.125196223303921
17 1
    -0.889219663037781     0.000000000000000    -0.000000000000000
     0.000000000000000     0.018217871568098     0.362757112956722
    -0.000000000000000     0.382257602423163    -0.020436986506397
17 2
     0.575404968649627     0.000000000000000    -0.000000000000000
    -0.000000000000000    -0.016507036339874     0.142610647313863
     0.000000000000000     0.106124096485875    -0.089655011301058
17 3
    -0.889219663037781    -0.000000000000000    -0.000000000000000
     0.000000000000000     0.018217871568098    -0.362757112956722
    -0.000000000000000    -0.382257602423162    -0.020436986506397
17 4
     0.575404968649627    -0.000000000000000    -0.000000000000000
    -0.000000000000000    -0.016507036339874    -0.142610647313863
    -0.000000000000000    -0.106124096485875    -0.089655011301059
17 5
    -0.933692241753971    -0.000000000000000    -0.000000000000000
     0.000000000000000     0.227939642085568    -0.536117543395988
    -0.000000000000000    -0.543469088200565     0.308179102244635
17 6
     0.708042560453283    -0.000000000000000    -0.000000000000000
    -0.000000000000000    -0.016100647707330    -0.125400915426283
     0.000000000000000    -0.158921074680522     0.055704170407129
17 7
    -0.933692241753971     0.000000000000000    -0.000000000000000
     0.000000000000000     0.227939642085568     0.536117543395988
    -0.000000000000000     0.543469088200565     0.308179102244635
17 8
     0.708042560453283     0.000000000000000    -0.000000000000000
    -0.000000000000000    -0.016100647707330     0.125400915426282
     0.000000000000000     0.158921074680522     0.055704170407129
17 9
    -0.306138996458065    -0.000000000000000    -0.483581152552462
    -0.000000000000000    -1.544654475328761     0.000000000000000
    -0.299764629417182    -0.000000000000000    -1.747741079068277
17 10
    -0.306138996458065    -0.000000000000000     0.483581152552462
     0.000000000000000    -1.544654475328761     0.000000000000000
     0.299764629417181    -0.000000000000000    -1.747741079068277
17 11
     0.066269628968768     0.000000000000000     0.064703683906108
    -0.000000000000000     1.648522884708661     0.000000000000000
    -0.027205708888396     0.000000000000000    -0.140686142588242
17 12
     0.066269628968768     0.000000000000000    -0.064703683906108
    -0.000000000000000     1.648522884708661     0.000000000000000
     0.027205708888396     0.000000000000000    -0.140686142588242
17 13
     0.047408671320478    -0.000000000000000     0.063869586466509
    -0.000000000000000    -0.145524549532433     0.000000000000000
    -0.022720963864242    -0.000000000000000     1.432399509612628
17 14
     0.047408671320478    -0.000000000000000    -0.063869586466508
    -0.000000000000000    -0.145524549532433     0.000000000000000
     0.022720963864242    -0.000000000000000     1.432399509612628
17 15
    -0.000252796354933     0.000000000000000     0.007103969168673
    -0.000000000000000     0.140714892204663     0.000000000000000
    -0.016851678199502     0.000000000000000     0.150511319928361
17 16
    -0.000252796354933     0.000000000000000    -0.007103969168673
     0.000000000000000     0.140714892204663     0.000000000000000
     0.016851678199502     0.000000000000000     0.150511319928362
17 17
    19.159898692769733     0.000000000000000     0.000000000000000
    -0.000000000000001     5.146053132706726     0.000000000000000
     0.000000000000000     0.000000000000001     5.021221066938294
17 18
    -7.105706110237379    -0.000000000000000     0.000000000000000
     0.000000000000000    -0.208044873526224     0.000000000000000
    -0.000000000000000    -0.000000000000000    -0.122159547659653
17 19
     1.194693818135539    -0.000000000000000     0.000000000000000
    -0.000000000000000    -0.427527803125584     0.000000000000000
     0.000000000000000    -0.000000000000000     0.188516274246956
17 20
    -1.462984283566755    -0.000000000000000     0.000000000000000
     0.000000000000000    -0.543008310819537     0.000000000000000
    -0.000000000000000    -0.000000000000000     0.024840237502760
17 21
     1.037821714495248     0.000000000000000     0.000000000000000
    -0.000000000000000     0.167084902337363     0.000000000000000
     0.000000000000000     0.000000000000000    -0.387763167374391
17 22
    -1.253651497457738     0.000000000000000     0.000000000000000
     0.000000000000000     0.023939510238279     0.000000000000000
     0.000000000000000     0.000000000000000    -0.471698584672284
17 23
     0.325319756724042    -0.000000000000000     0.000000000000000
    -0.000000000000000    -0.291157875465441     0.000000000000000
     0.000000000000000    -0.000000000000000    -0.305893409223048
17 24
    -0.317655806645216    -0.000000000000000     0.000000000000000
     0.000000000000000    -0.042976250549897     0.000000000000000
    -0.000000000000000    -0.000000000000000    -0.051332659190012
17 25
    -1.315564196477923     2.586644936599599     0.105465464493124
     1.367904354694815    -1.315809378484817     0.022752759708019
     0.022683433719865     0.105756515528941     0.405758978832494
17 26
    -1.315564196477924    -2.586644936599600    -0.105465464493124
    -1.367904354694814    -1.315809378484816     0.022752759708020
    -0.022683433719865     0.105756515528941     0.405758978832494
17 27
    -1.315564196477923    -2.586644936599599     0.105465464493124
    -1.367904354694814    -1.315809378484816    -0.022752759708019
     0.022683433719864    -0.105756515528941     0.405758978832494
17 28
    -1.315564196477923     2.586644936599599    -0.105465464493124
     1.367904354694815    -1.315809378484817    -0.022752759708019
    -0.022683433719864    -0.105756515528941     0.405758978832494
17 29
     0.003433853413313     0.222118146679660    -0.046429248609712
     0.060159876101340     0.003256112774776     0.002173352483464
     0.002174603794229    -0.046592494726121    -0.176145909744122
17 30
     0.003433853413313    -0.222118146679660     0.046429248609712
    -0.060159876101340     0.003256112774776     0.002173352483464
    -0.002174603794229    -0.046592494726121    -0.176145909744122
17 31
     0.003433853413313    -0.222118146679660    -0.046429248609712
    -0.060159876101340     0.003256112774776    -0.002173352483464
     0.002174603794229     0.046592494726121    -0.176145909744122
17 32
     0.003433853413313     0.222118146679660     0.046429248609712
     0.060159876101340     0.003256112774776    -0.002173352483464
    -0.002174603794229     0.046592494726121    -0.176145909744122
17 33
    -1.153719053356200     0.000000000000000     2.106970597250145
     0.000000000000000     0.365909017939748    -0.000000000000000
     1.277449767581173     0.000000000000000    -1.255509430719988
17 34
    -1.153719053356200     0.000000000000000    -2.106970597250146
    -0.000000000000000     0.365909017939748     0.000000000000000
    -1.277449767581174     0.000000000000000    -1.255509430719988
17 35
     0.007022604421044    -0.000000000000000     0.212013471724758
     0.000000000000000    -0.176982684578373    -0.000000000000000
     0.087133414514811    -0.000000000000000     0.012792417783607
17 36
     0.007022604421044    -0.000000000000000    -0.212013471724759
    -0.000000000000000    -0.176982684578373    -0.000000000000000
    -0.087133414514811    -0.000000000000000     0.012792417783607
17 37
    -1.287122866125497     0.000000000000000    -2.516086036603405
     0.000000000000000     0.380009050087725    -0.000000000000000
    -1.354303353863974     0.000000000000000    -1.096587927123530
17 38
    -1.287122866125497     0.000000000000000     2.516086036603405
     0.000000000000000     0.380009050087725    -0.000000000000000
     1.354303353863973     0.000000000000000    -1.096587927123530
17 39
     0.001390162399333    -0.000000000000000    -0.278003327791251
    -0.000000000000000    -0.168618214479851    -0.000000000000000
    -0.049326619358531    -0.000000000000000    -0.016059899382116
17 40
     0.001390162399333    -0.000000000000000     0.278003327791251
     0.000000000000000    -0.168618214479851    -0.000000000000000
     0.049326619358531    -0.000000000000000    -0.016059899382116
25 1
     0.018217871568098    -0.000000000000000     0.362757112956722
    -0.000000000000000    -0.889219663037781     0.000000000000000
     0.382257602423163     0.000000000000000    -0.020436986506397
25 2
     0.018217871568098    -0.000000000000000    -0.362757112956722
     0.000000000000000    -0.889219663037781     0.000000000000000
    -0.382257602423162     0.000000000000000    -0.020436986506397
25 3
    -0.016507036339874     0.000000000000000     0.142610647313863
    -0.000000000000000     0.575404968649627     0.000000000000000
     0.106124096485875    -0.000000000000000    -0.089655011301058
25 4
    -0.016507036339874     0.000000000000000    -0.142610647313863
     0.000000000000000     0.575404968649627     0.000000000000000
    -0.106124096485875     0.000000000000000    -0.089655011301059
25 5
     0.227939642085568    -0.000000000000000    -0.536117543395988
     0.000000000000000    -0.933692241753971     0.000000000000000
    -0.543469088200565     0.000000000000000     0.308179102244635
25 6
     0.227939642085568    -0.000000000000000     0.536117543395988
    -0.000000000000000    -0.933692241753971     0.000000000000000
     0.543469088200565     0.000000000000000     0.308179102244635
25 7
    -0.016100647707330     0.000000000000000    -0.125400915426283
     0.000000000000000     0.708042560453283     0.000000000000000
    -0.158921074680522    -0.000000000000000     0.055704170407129
25 8
    -0.016100647707330     0.000000000000000     0.125400915426282
    -0.000000000000000     0.708042560453283     0.000000000000000
     0.158921074680522    -0.000000000000000     0.055704170407129
25 9
    -1.544654475328761    -0.000000000000000     0.000000000000000
     0.000000000000000    -0.306138996458065    -0.483581152552462
    -0.000000000000000    -0.299764629417181    -1.747741079068277
25 10
     1.648522884708661     0.000000000000000     0.000000000000000
    -0.000000000000000     0.066269628968768     0.064703683906108
     0.000000000000000    -0.027205708888396    -0.140686142588242
25 11
    -1.544654475328761     0.000000000000000     0.000000000000000
     0.000000000000000    -0.306138996458065     0.483581152552462
    -0.000000000000000     0.299764629417182    -1.747741079068277
25 12
     1.648522884708661     0.000000000000000     0.000000000000000
    -0.000000000000000     0.066269628968768    -0.064703683906108
     0.000000000000000     0.027205708888396    -0.140686142588242
25 13
    -0.145524549532433     0.000000000000000     0.000000000000000
     0.000000000000000     0.047408671320478     0.063869586466508
    -0.000000000000000    -0.022720963864242     1.432399509612628
25 14
     0.140714892204663    -0.000000000000000     0.000000000000000
    -0.000000000000000    -0.000252796354933     0.007103969168673
     0.000000000000000    -0.016851678199502     0.150511319928362
25 15
    -0.145524549532433     0.000000000000000     0.000000000000000
     0.000000000000000     0.047408671320478    -0.063869586466509
    -0.000000000000000     0.022720963864242     1.432399509612628
25 16
     0.140714892204663     0.000000000000000     0.000000000000000
    -0.000000000000000    -0.000252796354933    -0.007103969168673
     0.000000000000000     0.016851678199502     0.150511319928361
25 17
    -1.315809378484816     1.367904354694814     0.022752759708020
     2.586644936599600    -1.315564196477924     0.105465464493124
     0.105756515528941     0.022683433719865     0.405758978832494
25 18
    -1.315809378484817    -1.367904354694815    -0.022752759708019
    -2.586644936599599    -1.315564196477923     0.105465464493124
    -0.105756515528941     0.022683433719864     0.405758978832494
25 19
    -1.315809378484817    -1.367904354694815     0.022752759708019
    -2.586644936599599    -1.315564196477923    -0.105465464493124
     0.105756515528941    -0.022683433719865     0.405758978832494
25 20
    -1.315809378484816     1.367904354694814    -0.022752759708019
     2.586644936599599    -1.315564196477923    -0.105465464493124
    -0.105756515528941    -0.022683433719864     0.405758978832494
25 21
     0.003256112774776     0.060159876101340     0.002173352483464
     0.222118146679660     0.003433853413313    -0.046429248609712
    -0.046592494726121     0.002174603794229    -0.176145909744122
25 22
     0.003256112774776    -0.060159876101340    -0.002173352483464
    -0.222118146679660     0.003433853413313    -0.046429248609712
     0.046592494726121     0.002174603794229    -0.176145909744122
25 23
     0.003256112774776    -0.060159876101340     0.002173352483464
    -0.222118146679660     0.003433853413313     0.046429248609712
    -0.046592494726121    -0.002174603794229    -0.176145909744122
25 24
     0.003256112774776     0.060159876101340    -0.002173352483464
     0.222118146679660     0.003433853413313     0.046429248609712
     0.046592494726121    -0.002174603794229    -0.176145909744122
25 25
     5.146053132706726     0.000000000000001     0.000000000000000
    -0.000000000000000    19.159898692769733    -0.000000000000000
     0.000000000000001    -0.000000000000000     5.021221066938294
25 26
    -0.427527803125584     0.000000000000000     0.000000000000000