  64   64
1 1
     3.343621739710000    -0.684252088550000     0.684252088550000
    -0.684252088550000     3.343621739710000    -0.684252088550000
     0.684252088550000    -0.684252088550000     3.343621739710000
1 2
    -0.304075366460000     0.000135825910000     0.023081211440000
     0.000135825910000    -0.004463327730000    -0.008137657440000
     0.023081211440000    -0.008137657440000    -0.003879285330000
1 3
    -0.003879285330000    -0.023081211440000     0.008137657440000
    -0.023081211440000    -0.304075366460000     0.000135825910000
     0.008137657440000     0.000135825910000    -0.004463327730000
1 4
    -0.022762601890000    -0.002758608910000    -0.007944418720000
    -0.002758608910000    -0.059059485100000     0.009210835350000
    -0.007944418720000     0.009210835350000    -0.032987399740000
1 5
    -0.004463327730000    -0.008137657440000    -0.000135825910000
    -0.008137657440000    -0.003879285330000    -0.023081211440000
    -0.000135825910000    -0.023081211440000    -0.304075366460000
1 6
    -0.059059485100000     0.009210835350000     0.002758608910000
     0.009210835350000    -0.032987399740000     0.007944418720000
     0.002758608910000     0.007944418720000    -0.022762601890000
1 7
    -0.032987399740000     0.007944418720000    -0.009210835350000
     0.007944418720000    -0.022762601890000    -0.002758608910000
    -0.009210835350000    -0.002758608910000    -0.059059485100000
1 8
     0.019671142890000    -0.015049186360000     0.015049186360000
    -0.015049186360000     0.019671142890000    -0.015049186360000
     0.015049186360000    -0.015049186360000     0.019671142890000
1 9
     0.055618321700000     0.009726919730000     0.046853719980000
    -0.023989271190000     0.051797981390000     0.093174771660000
     0.069055893530000     0.034461566020000     0.032711061160000
1 10
    -0.087456473810000     0.015811686160000    -0.048890477720000
     0.036126357250000    -0.008732064790000     0.027962742370000
    -0.066851043340000     0.022369905480000    -0.015417637800000
1 11
    -0.014431795860000     0.031473215740000     0.020984246860000
     0.044045629700000    -0.114072043070000    -0.114523414110000
     0.021140622410000    -0.090847524930000    -0.028743178040000
1 12
    -0.005704958610000    -0.010004159610000     0.019161457740000
    -0.005235561570000     0.025988805240000    -0.004458100190000
     0.006550378010000    -0.015736607870000     0.000062820610000
1 13
     0.055618321700000    -0.023989271190000    -0.069055893530000
     0.009726919730000     0.051797981390000    -0.034461566020000
    -0.046853719980000    -0.093174771660000     0.032711061160000
1 14
    -0.087456473810000     0.036126357250000     0.066851043340000
     0.015811686160000    -0.008732064790000    -0.022369905480000
     0.048890477720000    -0.027962742370000    -0.015417637800000
1 15
    -0.014431795860000     0.044045629700000    -0.021140622410000
     0.031473215740000    -0.114072043070000     0.090847524930000
    -0.020984246860000     0.114523414110000    -0.028743178040000
1 16
    -0.005704958610000    -0.005235561570000    -0.006550378010000
    -0.010004159610000     0.025988805240000     0.015736607870000
    -0.019161457740000     0.004458100190000     0.000062820610000
1 17
     0.032711061160000     0.046853719980000     0.093174771660000
     0.069055893530000     0.055618321700000    -0.023989271190000
     0.034461566020000     0.009726919730000     0.051797981390000
1 18
     0.032711061160000    -0.069055893530000    -0.034461566020000
    -0.046853719980000     0.055618321700000     0.009726919730000
    -0.093174771660000    -0.023989271190000     0.051797981390000
1 19
    -0.015417637800000    -0.048890477720000     0.027962742370000
    -0.066851043340000    -0.087456473810000     0.036126357250000
     0.022369905480000     0.015811686160000    -0.008732064790000
1 20
    -0.015417637800000     0.066851043340000    -0.022369905480000
     0.048890477720000    -0.087456473810000     0.015811686160000
    -0.027962742370000     0.036126357250000    -0.008732064790000
1 21
    -0.028743178040000     0.020984246860000    -0.114523414110000
     0.021140622410000    -0.014431795860000     0.044045629700000
    -0.090847524930000     0.031473215740000    -0.114072043070000
1 22
    -0.028743178040000    -0.021140622410000     0.090847524930000
    -0.020984246860000    -0.014431795860000     0.031473215740000
     0.114523414110000     0.044045629700000    -0.114072043070000
1 23
     0.000062820610000     0.019161457740000    -0.004458100190000
     0.006550378010000    -0.005704958610000    -0.005235561570000
    -0.015736607870000    -0.010004159610000     0.025988805240000
1 24
     0.000062820610000    -0.006550378010000     0.015736607870000
    -0.019161457740000    -0.005704958610000    -0.010004159610000
     0.004458100190000    -0.005235561570000     0.025988805240000
1 25
    -0.114072043070000    -0.114523414110000    -0.044045629700000
    -0.090847524930000    -0.028743178040000    -0.021140622410000
    -0.031473215740000    -0.020984246860000    -0.014431795860000
1 26
     0.051797981390000     0.093174771660000     0.023989271190000
     0.034461566020000     0.032711061160000    -0.069055893530000
    -0.009726919730000    -0.046853719980000     0.055618321700000
1 27
    -0.114072043070000     0.090847524930000    -0.031473215740000
     0.114523414110000    -0.028743178040000     0.020984246860000
    -0.044045629700000     0.021140622410000    -0.014431795860000
1 28
     0.051797981390000    -0.034461566020000    -0.009726919730000
    -0.093174771660000     0.032711061160000     0.046853719980000
     0.023989271190000     0.069055893530000     0.055618321700000
1 29
     0.025988805240000    -0.004458100190000     0.005235561570000
    -0.015736607870000     0.000062820610000    -0.006550378010000
     0.010004159610000    -0.019161457740000    -0.005704958610000
1 30
    -0.008732064790000     0.027962742370000    -0.036126357250000
     0.022369905480000    -0.015417637800000     0.066851043340000
    -0.015811686160000     0.048890477720000    -0.087456473810000
1 31
     0.025988805240000     0.015736607870000     0.010004159610000
     0.004458100190000     0.000062820610000     0.019161457740000
     0.005235561570000     0.006550378010000    -0.005704958610000
1 32
    -0.008732064790000    -0.022369905480000    -0.015811686160000
    -0.027962742370000    -0.015417637800000    -0.048890477720000
    -0.036126357250000    -0.066851043340000    -0.087456473810000
1 33
    -0.126432488405342    -0.037893427212030     0.099505638798216
    -0.078839446046450    -0.001005733085251     0.035723116729363
     0.039392125404002     0.022855042093148     0.024986168169897
1 34
    -0.376172824847270     0.601995084183864    -0.652731305770226
     0.652731305770226    -0.376172824847270     0.601995084183864
    -0.601995084183864     0.652731305770226    -0.376172824847270
1 35
    -0.061061944552530     0.022184693815547     0.005822044311686
    -0.013888133203199    -0.047498662714528     0.006372311345343
    -0.009157774867166    -0.004721931582072    -0.058756806006486
1 36
     0.024986168169897    -0.039392125404002    -0.022855042093148
    -0.099505638798216    -0.126432488405342    -0.037893427212030
    -0.035723116729363    -0.078839446046450    -0.001005733085251
1 37
    -0.047498662714528     0.006372311345343     0.013888133203199
    -0.004721931582072    -0.058756806006486     0.009157774867166
    -0.022184693815547    -0.005822044311686    -0.061061944552530
1 38
    -0.001005733085251     0.035723116729363     0.078839446046450
     0.022855042093148     0.024986168169897    -0.039392125404002
     0.037893427212030    -0.099505638798216    -0.126432488405342
1 39
     0.033137367276416     0.008612142548189     0.014761144913564
    -0.014761144913564     0.033137367276416     0.008612142548189
    -0.008612142548189    -0.014761144913564     0.033137367276416
1 40
    -0.058756806006486     0.009157774867166     0.004721931582072
    -0.005822044311686    -0.061061944552530     0.022184693815547
    -0.006372311345343    -0.013888133203199    -0.047498662714528
1 41
    -0.983422832801242     0.023587748350061    -0.526061604240881
     0.040668357291403     0.166935259981410     0.043262533498311
    -0.566456934703946     0.053287000010371    -0.200805754852437
1 42
    -1.023359326511128    -0.213147578703785     0.510651177934618
     0.012699539556994     0.017648150820618    -0.111242843052859
     0.453995161690621    -0.002263847451635    -0.159409326018800
1 43
     0.052279160236630     0.013691368498209     0.021208454369160
     0.050641420604300     0.163995165524401     0.029270751221390
    -0.013865802305203    -0.022131605265592     0.000455044713896
1 44
     0.018548970819054    -0.005355202142245    -0.022825127116587
     0.001817650829398     0.058234347260901    -0.000034128353542
    -0.005110826277374     0.002385192708674     0.028820341222173
1 45
    -0.067028086356950    -0.024073550715915     0.046972411929661
     0.004405506970835     0.005871762160057     0.008502594746695
     0.063619464379707     0.008747391949264    -0.087393022654609
1 46
    -0.050723160117723     0.037265212704235    -0.055127403075463
    -0.006902354169493    -0.009347798168988     0.023397303710542
    -0.070351598119186     0.007612729528409    -0.057810060198962
1 47
     0.018606272745989     0.004679797812267    -0.018813992231129
    -0.015058187990691    -0.019967193510698     0.015921930271698
     0.027773738380211    -0.007723120005298     0.012887877508023
1 48
     0.004600586325033     0.024452754644163    -0.006215995059365
     0.009010306672848    -0.007152207424438    -0.021634426781891
     0.007810336908795     0.032996219147569     0.006883815310778
1 49
    -0.159409326018800    -0.453995161690621     0.002263847451635
    -0.510651177934618    -1.023359326511128    -0.213147578703785
     0.111242843052859     0.012699539556994     0.017648150820618
1 50
    -0.057810060198962     0.070351598119186    -0.007612729528409
     0.055127403075463    -0.050723160117723     0.037265212704235
    -0.023397303710542    -0.006902354169493    -0.009347798168988
1 51
    -0.200805754852437     0.566456934703946    -0.053287000010371
     0.526061604240881    -0.983422832801242     0.023587748350061
    -0.043262533498311     0.040668357291403     0.166935259981410
1 52
    -0.087393022654609    -0.063619464379707    -0.008747391949264
    -0.046972411929661    -0.067028086356950    -0.024073550715915
    -0.008502594746695     0.004405506970835     0.005871762160057
1 53
     0.028820341222173     0.005110826277374    -0.002385192708674
     0.022825127116587     0.018548970819054    -0.005355202142245
     0.000034128353542     0.001817650829398     0.058234347260901
1 54
     0.006883815310778    -0.007810336908795    -0.032996219147569
     0.006215995059365     0.004600586325033     0.024452754644163
     0.021634426781891     0.009010306672848    -0.007152207424438
1 55
     0.000455044713896     0.013865802305203     0.022131605265592
    -0.021208454369160     0.052279160236630     0.013691368498209
    -0.029270751221390     0.050641420604300     0.163995165524401
1 56
     0.012887877508023    -0.027773738380211     0.007723120005298
     0.018813992231129     0.018606272745989     0.004679797812267
    -0.015921930271698    -0.015058187990691    -0.019967193510698
1 57
     0.017648150820618    -0.111242843052859    -0.012699539556994
    -0.002263847451635    -0.159409326018800    -0.453995161690621
     0.213147578703785    -0.510651177934618    -1.023359326511128
1 58
     0.058234347260901    -0.000034128353542    -0.001817650829398
     0.002385192708674     0.028820341222173     0.005110826277374
     0.005355202142245     0.022825127116587     0.018548970819054
1 59
    -0.009347798168988     0.023397303710542     0.006902354169493
     0.007612729528409    -0.057810060198962     0.070351598119186
    -0.037265212704235     0.055127403075463    -0.050723160117723
1 60
    -0.007152207424438    -0.021634426781891    -0.009010306672848
     0.032996219147569     0.006883815310778    -0.007810336908795
    -0.024452754644163     0.006215995059365     0.004600586325033
1 61
     0.166935259981410     0.043262533498311    -0.040668357291403
     0.053287000010371    -0.200805754852437     0.566456934703946
    -0.023587748350061     0.526061604240881    -0.983422832801242
1 62
     0.163995165524401     0.029270751221390    -0.050641420604300
    -0.022131605265592     0.000455044713896     0.013865802305203
    -0.013691368498209    -0.021208454369160     0.052279160236630
1 63
     0.005871762160057     0.008502594746695    -0.004405506970835
     0.008747391949264    -0.087393022654609    -0.063619464379707
     0.024073550715915    -0.046972411929661    -0.067028086356950
1 64
    -0.019967193510698     0.015921930271698     0.015058187990691
    -0.007723120005298     0.012887877508023    -0.027773738380211
    -0.004679797812267     0.018813992231129     0.018606272745989
2 1
    -0.304075366460000     0.000135825910000     0.023081211440000
     0.000135825910000    -0.004463327730000    -0.008137657440000
     0.023081211440000    -0.008137657440000    -0.003879285330000
2 2
     3.343621739710000    -0.684252088550000     0.684252088550000
    -0.684252088550000     3.343621739710000    -0.684252088550000
     0.684252088550000    -0.684252088550000     3.343621739710000
2 3
    -0.022762601890000    -0.002758608910000    -0.007944418720000
    -0.002758608910000    -0.059059485100000     0.009210835350000
    -0.007944418720000     0.009210835350000    -0.032987399740000
2 4
    -0.003879285330000    -0.023081211440000     0.008137657440000
    -0.023081211440000    -0.304075366460000     0.000135825910000
     0.008137657440000     0.000135825910000    -0.004463327730000
2 5
    -0.059059485100000     0.009210835350000     0.002758608910000
     0.009210835350000    -0.032987399740000     0.007944418720000
     0.002758608910000     0.007944418720000    -0.022762601890000
2 6
    -0.004463327730000    -0.008137657440000    -0.000135825910000
    -0.008137657440000    -0.003879285330000    -0.023081211440000
    -0.000135825910000    -0.023081211440000    -0.304075366460000
2 7
     0.019671142890000    -0.015049186360000     0.015049186360000
    -0.015049186360000     0.019671142890000    -0.015049186360000
     0.015049186360000    -0.015049186360000     0.019671142890000
2 8
    -0.032987399740000     0.007944418720000    -0.009210835350000
     0.007944418720000    -0.022762601890000    -0.002758608910000
    -0.009210835350000    -0.002758608910000    -0.059059485100000
2 9
    -0.087456473810000     0.015811686160000    -0.048890477720000
     0.036126357250000    -0.008732064790000     0.027962742370000
    -0.066851043340000     0.022369905480000    -0.015417637800000
2 10
     0.055618321700000     0.009726919730000     0.046853719980000
    -0.023989271190000     0.051797981390000     0.093174771660000
     0.069055893530000     0.034461566020000     0.032711061160000
2 11
    -0.005704958610000    -0.010004159610000     0.019161457740000
    -0.005235561570000     0.025988805240000    -0.004458100190000
     0.006550378010000    -0.015736607870000     0.000062820610000
2 12
    -0.014431795860000     0.031473215740000     0.020984246860000
     0.044045629700000    -0.114072043070000    -0.114523414110000
     0.021140622410000    -0.090847524930000    -0.028743178040000
2 13
    -0.087456473810000     0.036126357250000     0.066851043340000
     0.015811686160000    -0.008732064790000    -0.022369905480000
     0.048890477720000    -0.027962742370000    -0.015417637800000
2 14
     0.055618321700000    -0.023989271190000    -0.069055893530000
     0.009726919730000     0.051797981390000    -0.034461566020000
    -0.046853719980000    -0.093174771660000     0.032711061160000
2 15
    -0.005704958610000    -0.005235561570000    -0.006550378010000
    -0.010004159610000     0.025988805240000     0.015736607870000
    -0.019161457740000     0.004458100190000     0.000062820610000
2 16
    -0.014431795860000     0.044045629700000    -0.021140622410000
     0.031473215740000    -0.114072043070000     0.090847524930000
    -0.020984246860000     0.114523414110000    -0.028743178040000
2 17
     0.032711061160000    -0.069055893530000    -0.034461566020000
    -0.046853719980000     0.055618321700000     0.009726919730000
    -0.093174771660000    -0.023989271190000     0.051797981390000
2 18
     0.032711061160000     0.046853719980000     0.093174771660000
     0.069055893530000     0.055618321700000    -0.023989271190000
     0.034461566020000     0.009726919730000     0.051797981390000
2 19
    -0.015417637800000     0.066851043340000    -0.022369905480000
     0.048890477720000    -0.087456473810000     0.015811686160000
    -0.027962742370000     0.036126357250000    -0.008732064790000
2 20
    -0.015417637800000    -0.048890477720000     0.027962742370000
    -0.066851043340000    -0.087456473810000     0.036126357250000
     0.022369905480000     0.015811686160000    -0.008732064790000
2 21
    -0.028743178040000    -0.021140622410000     0.090847524930000
    -0.020984246860000    -0.014431795860000     0.031473215740000
     0.114523414110000     0.044045629700000    -0.114072043070000
2 22
    -0.028743178040000     0.020984246860000    -0.114523414110000
     0.021140622410000    -0.014431795860000     0.044045629700000
    -0.090847524930000     0.031473215740000    -0.114072043070000
2 23
     0.000062820610000    -0.006550378010000     0.015736607870000
    -0.019161457740000    -0.005704958610000    -0.010004159610000
     0.004458100190000    -0.005235561570000     0.025988805240000
2 24
     0.000062820610000     0.019161457740000    -0.004458100190000
     0.006550378010000    -0.005704958610000    -0.005235561570000
    -0.015736607870000    -0.010004159610000     0.025988805240000
2 25
     0.051797981390000     0.093174771660000     0.023989271190000
     0.034461566020000     0.032711061160000    -0.069055893530000
    -0.009726919730000    -0.046853719980000     0.055618321700000
2 26
    -0.114072043070000    -0.114523414110000    -0.044045629700000
    -0.090847524930000    -0.028743178040000    -0.021140622410000
    -0.031473215740000    -0.020984246860000    -0.014431795860000
2 27
     0.051797981390000    -0.034461566020000    -0.009726919730000
    -0.093174771660000     0.032711061160000     0.046853719980000
     0.023989271190000     0.069055893530000     0.055618321700000
2 28
    -0.114072043070000     0.090847524930000    -0.031473215740000
     0.114523414110000    -0.028743178040000     0.020984246860000
    -0.044045629700000     0.021140622410000    -0.014431795860000
2 29
    -0.008732064790000     0.027962742370000    -0.036126357250000
     0.022369905480000    -0.015417637800000     0.066851043340000
    -0.015811686160000     0.048890477720000    -0.087456473810000
2 30
     0.025988805240000    -0.004458100190000     0.005235561570000
    -0.015736607870000     0.000062820610000    -0.006550378010000
     0.010004159610000    -0.019161457740000    -0.005704958610000
2 31
    -0.008732064790000    -0.022369905480000    -0.015811686160000
    -0.027962742370000    -0.015417637800000    -0.048890477720000
    -0.036126357250000    -0.066851043340000    -0.087456473810000
2 32
     0.025988805240000     0.015736607870000     0.010004159610000
     0.004458100190000     0.000062820610000     0.019161457740000
     0.005235561570000     0.006550378010000    -0.005704958610000
2 33
    -0.376172824847270     0.601995084183864    -0.652731305770226
     0.652731305770226    -0.376172824847270     0.601995084183864
    -0.601995084183864     0.652731305770226    -0.376172824847270
2 34
    -0.126432488405342    -0.037893427212030     0.099505638798216
    -0.078839446046450    -0.001005733085251     0.035723116729363
     0.039392125404002     0.022855042093148     0.024986168169897
2 35
     0.024986168169897    -0.039392125404002    -0.022855042093148
    -0.099505638798216    -0.126432488405342    -0.037893427212030
    -0.035723116729363    -0.078839446046450    -0.001005733085251
2 36
    -0.061061944552530     0.022184693815547     0.005822044311686
    -0.013888133203199    -0.047498662714528     0.006372311345343
    -0.009157774867166    -0.004721931582072    -0.058756806006486
2 37
    -0.001005733085251     0.035723116729363     0.078839446046450
     0.022855042093148     0.024986168169897    -0.039392125404002
     0.037893427212030    -0.099505638798216    -0.126432488405342
2 38
    -0.047498662714528     0.006372311345343     0.013888133203199
    -0.004721931582072    -0.058756806006486     0.009157774867166
    -0.022184693815547    -0.005822044311686    -0.061061944552530
2 39
    -0.058756806006486     0.009157774867166     0.004721931582072
    -0.005822044311686    -0.061061944552530     0.022184693815547
    -0.006372311345343    -0.013888133203199    -0.047498662714528
2 40
     0.033137367276416     0.008612142548189     0.014761144913564
    -0.014761144913564     0.033137367276416     0.008612142548189
    -0.008612142548189    -0.014761144913564     0.033137367276416
2 41
    -1.023359326511128    -0.213147578703785     0.510651177934618
     0.012699539556994     0.017648150820618    -0.111242843052859
     0.453995161690621    -0.002263847451635    -0.159409326018800
2 42
    -0.983422832801242     0.023587748350061    -0.526061604240881
     0.040668357291403     0.166935259981410     0.043262533498311
    -0.566456934703946     0.053287000010371    -0.200805754852437
2 43
     0.018548970819054    -0.005355202142245    -0.022825127116587
     0.001817650829398     0.058234347260901    -0.000034128353542
    -0.005110826277374     0.002385192708674     0.028820341222173
2 44
     0.052279160236630     0.013691368498209     0.021208454369160
     0.050641420604300     0.163995165524401     0.029270751221390
    -0.013865802305203    -0.022131605265592     0.000455044713896
2 45
    -0.050723160117723     0.037265212704235    -0.055127403075463
    -0.006902354169493    -0.009347798168988     0.023397303710542
    -0.070351598119186     0.007612729528409    -0.057810060198962
2 46
    -0.067028086356950    -0.024073550715915     0.046972411929661
     0.004405506970835     0.005871762160057     0.008502594746695
     0.063619464379707     0.008747391949264    -0.087393022654609
2 47
     0.004600586325033     0.024452754644163    -0.006215995059365
     0.009010306672848    -0.007152207424438    -0.021634426781891
     0.007810336908795     0.032996219147569     0.006883815310778
2 48
     0.018606272745989     0.004679797812267    -0.018813992231129
    -0.015058187990691    -0.019967193510698     0.015921930271698
     0.027773738380211    -0.007723120005298     0.012887877508023
2 49
    -0.057810060198962     0.070351598119186    -0.007612729528409
     0.055127403075463    -0.050723160117723     0.037265212704235
    -0.023397303710542    -0.006902354169493    -0.009347798168988
2 50
    -0.159409326018800    -0.453995161690621     0.002263847451635
    -0.510651177934618    -1.023359326511128    -0.213147578703785
     0.111242843052859     0.012699539556994     0.017648150820618
2 51
    -0.087393022654609    -0.063619464379707    -0.008747391949264
    -0.046972411929661    -0.067028086356950    -0.024073550715915
    -0.008502594746695     0.004405506970835     0.005871762160057
2 52
    -0.200805754852437     0.566456934703946    -0.053287000010371
     0.526061604240881    -0.983422832801242     0.023587748350061
    -0.043262533498311     0.040668357291403     0.166935259981410
2 53
     0.006883815310778    -0.007810336908795    -0.032996219147569
     0.006215995059365     0.004600586325033     0.024452754644163
     0.021634426781891     0.009010306672848    -0.007152207424438
2 54
     0.028820341222173     0.005110826277374    -0.002385192708674
     0.022825127116587     0.018548970819054    -0.005355202142245
     0.000034128353542     0.001817650829398     0.058234347260901
2 55
     0.012887877508023    -0.027773738380211     0.007723120005298
     0.018813992231129     0.018606272745989     0.004679797812267
    -0.015921930271698    -0.015058187990691    -0.019967193510698
2 56
     0.000455044713896     0.013865802305203     0.022131605265592
    -0.021208454369160     0.052279160236630     0.013691368498209
    -0.029270751221390     0.050641420604300     0.163995165524401
2 57
     0.058234347260901    -0.000034128353542    -0.001817650829398
     0.002385192708674     0.028820341222173     0.005110826277374
     0.005355202142245     0.022825127116587     0.018548970819054
2 58
     0.017648150820618    -0.111242843052859    -0.012699539556994
    -0.002263847451635    -0.159409326018800    -0.453995161690621
     0.213147578703785    -0.510651177934618    -1.023359326511128
2 59
    -0.007152207424438    -0.021634426781891    -0.009010306672848
     0.032996219147569     0.006883815310778    -0.007810336908795
    -0.024452754644163     0.006215995059365     0.004600586325033
2 60
    -0.009347798168988     0.023397303710542     0.006902354169493
     0.007612729528409    -0.057810060198962     0.070351598119186
    -0.037265212704235     0.055127403075463    -0.050723160117723
2 61
     0.163995165524401     0.029270751221390    -0.050641420604300
    -0.022131605265592     0.000455044713896     0.013865802305203
    -0.013691368498209    -0.021208454369160     0.052279160236630
2 62
     0.166935259981410     0.043262533498311    -0.040668357291403
     0.053287000010371    -0.200805754852437     0.566456934703946
    -0.023587748350061     0.526061604240881    -0.983422832801242
2 63
    -0.019967193510698     0.015921930271698     0.015058187990691
    -0.007723120005298     0.012887877508023    -0.027773738380211
    -0.004679797812267     0.018813992231129     0.018606272745989
2 64
     0.005871762160057     0.008502594746695    -0.004405506970835
     0.008747391949264    -0.087393022654609    -0.063619464379707
     0.024073550715915    -0.046972411929661    -0.067028086356950
3 1
    -0.003879285330000    -0.023081211440000     0.008137657440000
    -0.023081211440000    -0.304075366460000     0.000135825910000
     0.008137657440000     0.000135825910000    -0.004463327730000
3 2
    -0.022762601890000    -0.002758608910000    -0.007944418720000
    -0.002758608910000    -0.059059485100000     0.009210835350000
    -0.007944418720000     0.009210835350000    -0.032987399740000
3 3
     3.343621739710000    -0.684252088550000     0.684252088550000
    -0.684252088550000     3.343621739710000    -0.684252088550000
     0.684252088550000    -0.684252088550000     3.343621739710000
3 4
    -0.304075366460000     0.000135825910000     0.023081211440000
     0.000135825910000    -0.004463327730000    -0.008137657440000
     0.023081211440000    -0.008137657440000    -0.003879285330000
3 5
    -0.032987399740000     0.007944418720000    -0.009210835350000
     0.007944418720000    -0.022762601890000    -0.002758608910000
    -0.009210835350000    -0.002758608910000    -0.059059485100000
3 6
     0.019671142890000    -0.015049186360000     0.015049186360000
    -0.015049186360000     0.019671142890000    -0.015049186360000
     0.015049186360000    -0.015049186360000     0.019671142890000
3 7
    -0.004463327730000    -0.008137657440000    -0.000135825910000
    -0.008137657440000    -0.003879285330000    -0.023081211440000
    -0.000135825910000    -0.023081211440000    -0.304075366460000
3 8
    -0.059059485100000     0.009210835350000     0.002758608910000
     0.009210835350000    -0.032987399740000     0.007944418720000
     0.002758608910000     0.007944418720000    -0.022762601890000
3 9
    -0.014431795860000     0.031473215740000     0.020984246860000
     0.044045629700000    -0.114072043070000    -0.114523414110000
     0.021140622410000    -0.090847524930000    -0.028743178040000
3 10
    -0.005704958610000    -0.010004159610000     0.019161457740000
    -0.005235561570000     0.025988805240000    -0.004458100190000
     0.006550378010000    -0.015736607870000     0.000062820610000
3 11
     0.055618321700000     0.009726919730000     0.046853719980000
    -0.023989271190000     0.051797981390000     0.093174771660000
     0.069055893530000     0.034461566020000     0.032711061160000
3 12
    -0.087456473810000     0.015811686160000    -0.048890477720000
     0.036126357250000    -0.008732064790000     0.027962742370000
    -0.066851043340000     0.022369905480000    -0.015417637800000
3 13
    -0.014431795860000     0.044045629700000    -0.021140622410000
     0.031473215740000    -0.114072043070000     0.090847524930000
    -0.020984246860000     0.114523414110000    -0.028743178040000
3 14
    -0.005704958610000    -0.005235561570000    -0.006550378010000
    -0.010004159610000     0.025988805240000     0.015736607870000
    -0.019161457740000     0.004458100190000     0.000062820610000
3 15
     0.055618321700000    -0.023989271190000    -0.069055893530000
     0.009726919730000     0.051797981390000    -0.034461566020000
    -0.046853719980000    -0.093174771660000     0.032711061160000
3 16
    -0.087456473810000     0.036126357250000     0.066851043340000
     0.015811686160000    -0.008732064790000    -0.022369905480000
     0.048890477720000    -0.027962742370000    -0.015417637800000
3 17
    -0.015417637800000    -0.048890477720000     0.027962742370000
    -0.066851043340000    -0.087456473810000     0.036126357250000
     0.022369905480000     0.015811686160000    -0.008732064790000
3 18
    -0.015417637800000     0.066851043340000    -0.022369905480000
     0.048890477720000    -0.087456473810000     0.015811686160000