  50   50
1 1
    63.413765889019999     0.000000000000000    -0.000000000000000
     0.000000000000000    63.413765889019999     0.000000000000000
    -0.000000000000000     0.000000000000000    14.365645568360000
1 2
    -4.663411639030000     0.262938205950000     0.000000000000000
    -0.262938205950000     2.635459145060000    -0.000000000000000
    -0.000000000000000    -0.000000000000000     0.478455062140000
1 3
    -0.143823197190000     0.055802505450000     0.000000000000000
    -0.055802505450000     0.235844753030000     0.000000000000000
    -0.000000000000000     0.000000000000000     0.012130509450000
1 4
    -0.143823197190000    -0.055802505450000    -0.000000000000000
     0.055802505450000     0.235844753030000     0.000000000000000
     0.000000000000000     0.000000000000000     0.012130509450000
1 5
    -4.663411639030000    -0.262938205950000    -0.000000000000000
     0.262938205950000     2.635459145060000    -0.000000000000000
     0.000000000000000    -0.000000000000000     0.478455062140000
1 6
     0.810741419010000    -3.423442001160000    -0.000000000000000
    -2.897565589260000    -2.838693912980000    -0.000000000000000
    -0.000000000000000     0.000000000000000     0.478455062140000
1 7
    -0.407860169420000    -0.192178642420000    -0.000000000000000
    -0.192178642420000    -0.185951419360000     0.000000000000000
     0.000000000000000    -0.000000000000000    -0.071875505540000
1 8
    -0.242231962610000     0.000000000000000     0.000000000000000
    -0.000000000000000    -0.002380820420000    -0.000000000000000
     0.000000000000000    -0.000000000000000     0.011242296000000
1 9
    -0.407860169420000     0.192178642420000     0.000000000000000
     0.192178642420000    -0.185951419360000     0.000000000000000
    -0.000000000000000    -0.000000000000000    -0.071875505540000
1 10
     0.810741419010000     3.423442001160000    -0.000000000000000
     2.897565589260000    -2.838693912980000    -0.000000000000000
    -0.000000000000000     0.000000000000000     0.478455062140000
1 11
     0.140927825530000    -0.220203548390000     0.000000000000000
    -0.108598537490000    -0.048906269690000    -0.000000000000000
     0.000000000000000    -0.000000000000000     0.012130509450000
1 12
    -0.062343575940000    -0.103858636560000    -0.000000000000000
    -0.103858636560000    -0.182269207090000    -0.000000000000000
     0.000000000000000     0.000000000000000     0.011242296000000
1 13
    -0.062343575940000     0.103858636560000     0.000000000000000
     0.103858636560000    -0.182269207090000    -0.000000000000000
    -0.000000000000000     0.000000000000000     0.011242296000000
1 14
     0.140927825530000     0.220203548390000    -0.000000000000000
     0.108598537490000    -0.048906269690000    -0.000000000000000
    -0.000000000000000     0.000000000000000     0.012130509450000
1 15
    -0.074997044330000     0.000000000000000     0.000000000000000
    -0.000000000000000    -0.518814544450000     0.000000000000000
    -0.000000000000000    -0.000000000000000    -0.071875505540000
1 16
     0.140927825530000    -0.108598537490000     0.000000000000000
    -0.220203548390000    -0.048906269690000    -0.000000000000000
     0.000000000000000    -0.000000000000000     0.012130509450000
1 17
    -0.074997044330000    -0.000000000000000    -0.000000000000000
     0.000000000000000    -0.518814544450000    -0.000000000000000
     0.000000000000000     0.000000000000000    -0.071875505540000
1 18
     0.140927825530000     0.108598537490000    -0.000000000000000
     0.220203548390000    -0.048906269690000     0.000000000000000
    -0.000000000000000    -0.000000000000000     0.012130509450000
1 19
    -0.062343575940000     0.103858636560000    -0.000000000000000
     0.103858636560000    -0.182269207090000     0.000000000000000
     0.000000000000000    -0.000000000000000     0.011242296000000
1 20
    -0.062343575940000    -0.103858636560000     0.000000000000000
    -0.103858636560000    -0.182269207090000     0.000000000000000
    -0.000000000000000    -0.000000000000000     0.011242296000000
1 21
     0.810741419010000    -2.897565589260000    -0.000000000000000
    -3.423442001160000    -2.838693912980000     0.000000000000000
    -0.000000000000000    -0.000000000000000     0.478455062140000
1 22
     0.810741419010000     2.897565589260000    -0.000000000000000
     3.423442001160000    -2.838693912980000     0.000000000000000
    -0.000000000000000    -0.000000000000000     0.478455062140000
1 23
    -0.407860169420000     0.192178642420000    -0.000000000000000
     0.192178642420000    -0.185951419360000    -0.000000000000000
     0.000000000000000     0.000000000000000    -0.071875505540000
1 24
    -0.242231962610000    -0.000000000000000     0.000000000000000
     0.000000000000000    -0.002380820420000    -0.000000000000000
     0.000000000000000    -0.000000000000000     0.011242296000000
1 25
    -0.407860169420000    -0.192178642420000     0.000000000000000
    -0.192178642420000    -0.185951419360000    -0.000000000000000
    -0.000000000000000     0.000000000000000    -0.071875505540000
1 26
   -22.402756973259997    -6.941634937800000     0.000000000000000
    -6.941634937800000   -14.387247351859999     0.000000000000000
     0.000000000000000     0.000000000000000    -6.160691008140000
1 27
     0.236393175290000     0.735365547740000    -0.000000000000000
     0.735365547740000    -0.019796650310000     0.000000000000000
    -0.000000000000000     0.000000000000000     0.489958837610000
1 28
    -0.041423536800000    -0.000000000000000     0.000000000000000
    -0.000000000000000    -0.046870285080000     0.000000000000000
     0.000000000000000     0.000000000000000    -0.052651900040000
1 29
     0.236393175290000    -0.735365547740000     0.000000000000000
    -0.735365547740000    -0.019796650310000     0.000000000000000
     0.000000000000000     0.000000000000000     0.489958837610000
1 30
   -22.402756973259997     6.941634937800000    -0.000000000000000
     6.941634937800000   -14.387247351859999     0.000000000000000
    -0.000000000000000     0.000000000000000    -6.160691008140000
1 31
     0.681096006220000     0.478616249760000    -0.000000000000000
     0.478616249760000    -0.464499481240000    -0.000000000000000
    -0.000000000000000    -0.000000000000000     0.489958837610000
1 32
     0.361595599070000     0.113046451010000    -0.000000000000000
     0.113046451010000     0.231060771730000     0.000000000000000
    -0.000000000000000     0.000000000000000    -0.047034835780000
1 33
     0.361595599070000    -0.113046451010000     0.000000000000000
    -0.113046451010000     0.231060771730000     0.000000000000000
     0.000000000000000     0.000000000000000    -0.047034835780000
1 34
     0.681096006220000    -0.478616249760000    -0.000000000000000
    -0.478616249760000    -0.464499481240000     0.000000000000000
    -0.000000000000000     0.000000000000000     0.489958837610000
1 35
    -1.937620405390000     0.000000000000000    -0.000000000000000
     0.000000000000000     0.845581246270000    -0.000000000000000
    -0.000000000000000    -0.000000000000000    -0.389208888070000
1 36
    -0.045508598010000     0.002358600070000     0.000000000000000
     0.002358600070000    -0.042785223870000    -0.000000000000000
     0.000000000000000    -0.000000000000000    -0.052651900040000
1 37
     0.165793358060000     0.000000000000000     0.000000000000000
     0.000000000000000     0.426863012740000    -0.000000000000000
     0.000000000000000    -0.000000000000000    -0.047034835780000
1 38
    -0.045508598010000    -0.002358600070000     0.000000000000000
    -0.002358600070000    -0.042785223870000    -0.000000000000000
     0.000000000000000    -0.000000000000000    -0.052651900040000
1 39
    -0.089911343250000    -0.123682912170000    -0.000000000000000
    -0.123682912170000     0.205054074090000     0.000000000000000
    -0.000000000000000     0.000000000000000     0.012062767410000
1 40
    -0.089911343250000     0.123682912170000     0.000000000000000
     0.123682912170000     0.205054074090000    -0.000000000000000
     0.000000000000000    -0.000000000000000     0.012062767410000
1 41
    -0.592594514150000    -0.256749297980000    -0.000000000000000
    -0.256749297980000     0.809191039130000     0.000000000000000
    -0.000000000000000     0.000000000000000     0.489958837610000
1 42
    -0.592594514150000     0.256749297980000     0.000000000000000
     0.256749297980000     0.809191039130000     0.000000000000000
     0.000000000000000     0.000000000000000     0.489958837610000
1 43
     0.024200243240000    -0.189565289040000     0.000000000000000
    -0.189565289040000     0.090942487600000    -0.000000000000000
     0.000000000000000    -0.000000000000000     0.012062767410000
1 44
    -0.019396203570000    -0.000000000000000    -0.000000000000000
    -0.000000000000000    -0.019396203570000    -0.000000000000000
    -0.000000000000000    -0.000000000000000    -0.008729955130000
1 45
     0.024200243240000     0.189565289040000    -0.000000000000000
     0.189565289040000     0.090942487600000    -0.000000000000000
    -0.000000000000000    -0.000000000000000     0.012062767410000
1 46
   -10.379492541159999     0.000000000000000     0.000000000000000
     0.000000000000000   -26.410511783959997     0.000000000000000
     0.000000000000000     0.000000000000000    -6.160691008140000
1 47
     0.149780773300000    -1.205161639760000     0.000000000000000
    -1.205161639760000    -1.241820052530000    -0.000000000000000
     0.000000000000000    -0.000000000000000    -0.389208888070000
1 48
     0.238425196270000    -0.065882376870000    -0.000000000000000
    -0.065882376870000    -0.123282585540000    -0.000000000000000
    -0.000000000000000    -0.000000000000000     0.012062767410000
1 49
     0.238425196270000     0.065882376870000     0.000000000000000
     0.065882376870000    -0.123282585540000     0.000000000000000
     0.000000000000000     0.000000000000000     0.012062767410000
1 50
     0.149780773300000     1.205161639760000    -0.000000000000000
     1.205161639760000    -1.241820052530000    -0.000000000000000
    -0.000000000000000    -0.000000000000000    -0.389208888070000
2 1
    -4.663411639030000    -0.262938205950000    -0.000000000000000
     0.262938205950000     2.635459145060000    -0.000000000000000
     0.000000000000000    -0.000000000000000     0.478455062140000
2 2
    63.413765889019999     0.000000000000000    -0.000000000000000
     0.000000000000000    63.413765889019999     0.000000000000000
    -0.000000000000000     0.000000000000000    14.365645568360000
2 3
    -4.663411639030000     0.262938205950000     0.000000000000000
    -0.262938205950000     2.635459145060000    -0.000000000000000
    -0.000000000000000    -0.000000000000000     0.478455062140000
2 4
    -0.143823197190000     0.055802505450000     0.000000000000000
    -0.055802505450000     0.235844753030000     0.000000000000000
    -0.000000000000000     0.000000000000000     0.012130509450000
2 5
    -0.143823197190000    -0.055802505450000    -0.000000000000000
     0.055802505450000     0.235844753030000     0.000000000000000
     0.000000000000000     0.000000000000000     0.012130509450000
2 6
     0.810741419010000     3.423442001160000    -0.000000000000000
     2.897565589260000    -2.838693912980000    -0.000000000000000
    -0.000000000000000     0.000000000000000     0.478455062140000
2 7
     0.810741419010000    -3.423442001160000    -0.000000000000000
    -2.897565589260000    -2.838693912980000    -0.000000000000000
    -0.000000000000000     0.000000000000000     0.478455062140000
2 8
    -0.407860169420000    -0.192178642420000    -0.000000000000000
    -0.192178642420000    -0.185951419360000     0.000000000000000
     0.000000000000000    -0.000000000000000    -0.071875505540000
2 9
    -0.242231962610000     0.000000000000000     0.000000000000000
    -0.000000000000000    -0.002380820420000    -0.000000000000000
     0.000000000000000    -0.000000000000000     0.011242296000000
2 10
    -0.407860169420000     0.192178642420000     0.000000000000000
     0.192178642420000    -0.185951419360000     0.000000000000000
    -0.000000000000000    -0.000000000000000    -0.071875505540000
2 11
    -0.074997044330000     0.000000000000000     0.000000000000000
    -0.000000000000000    -0.518814544450000     0.000000000000000
    -0.000000000000000    -0.000000000000000    -0.071875505540000
2 12
     0.140927825530000    -0.220203548390000     0.000000000000000
    -0.108598537490000    -0.048906269690000    -0.000000000000000
     0.000000000000000    -0.000000000000000     0.012130509450000
2 13
    -0.062343575940000    -0.103858636560000    -0.000000000000000
    -0.103858636560000    -0.182269207090000    -0.000000000000000
     0.000000000000000     0.000000000000000     0.011242296000000
2 14
    -0.062343575940000     0.103858636560000     0.000000000000000
     0.103858636560000    -0.182269207090000    -0.000000000000000
    -0.000000000000000     0.000000000000000     0.011242296000000
2 15
     0.140927825530000     0.220203548390000    -0.000000000000000
     0.108598537490000    -0.048906269690000    -0.000000000000000
    -0.000000000000000     0.000000000000000     0.012130509450000
2 16
    -0.062343575940000    -0.103858636560000     0.000000000000000
    -0.103858636560000    -0.182269207090000     0.000000000000000
    -0.000000000000000    -0.000000000000000     0.011242296000000
2 17
     0.140927825530000    -0.108598537490000     0.000000000000000
    -0.220203548390000    -0.048906269690000    -0.000000000000000
     0.000000000000000    -0.000000000000000     0.012130509450000
2 18
    -0.074997044330000    -0.000000000000000    -0.000000000000000
     0.000000000000000    -0.518814544450000    -0.000000000000000
     0.000000000000000     0.000000000000000    -0.071875505540000
2 19
     0.140927825530000     0.108598537490000    -0.000000000000000
     0.220203548390000    -0.048906269690000     0.000000000000000
    -0.000000000000000    -0.000000000000000     0.012130509450000
2 20
    -0.062343575940000     0.103858636560000    -0.000000000000000
     0.103858636560000    -0.182269207090000     0.000000000000000
     0.000000000000000    -0.000000000000000     0.011242296000000
2 21
    -0.407860169420000    -0.192178642420000     0.000000000000000
    -0.192178642420000    -0.185951419360000    -0.000000000000000
    -0.000000000000000     0.000000000000000    -0.071875505540000
2 22
     0.810741419010000    -2.897565589260000    -0.000000000000000
    -3.423442001160000    -2.838693912980000     0.000000000000000
    -0.000000000000000    -0.000000000000000     0.478455062140000
2 23
     0.810741419010000     2.897565589260000    -0.000000000000000
     3.423442001160000    -2.838693912980000     0.000000000000000
    -0.000000000000000    -0.000000000000000     0.478455062140000
2 24
    -0.407860169420000     0.192178642420000    -0.000000000000000
     0.192178642420000    -0.185951419360000    -0.000000000000000
     0.000000000000000     0.000000000000000    -0.071875505540000
2 25
    -0.242231962610000    -0.000000000000000     0.000000000000000
     0.000000000000000    -0.002380820420000    -0.000000000000000
     0.000000000000000    -0.000000000000000     0.011242296000000
2 26
   -22.402756973259997     6.941634937800000    -0.000000000000000
     6.941634937800000   -14.387247351859999     0.000000000000000
    -0.000000000000000     0.000000000000000    -6.160691008140000
2 27
   -22.402756973259997    -6.941634937800000     0.000000000000000
    -6.941634937800000   -14.387247351859999     0.000000000000000
     0.000000000000000     0.000000000000000    -6.160691008140000
2 28
     0.236393175290000     0.735365547740000    -0.000000000000000
     0.735365547740000    -0.019796650310000     0.000000000000000
    -0.000000000000000     0.000000000000000     0.489958837610000
2 29
    -0.041423536800000    -0.000000000000000     0.000000000000000
    -0.000000000000000    -0.046870285080000     0.000000000000000
     0.000000000000000     0.000000000000000    -0.052651900040000
2 30
     0.236393175290000    -0.735365547740000     0.000000000000000
    -0.735365547740000    -0.019796650310000     0.000000000000000
     0.000000000000000     0.000000000000000     0.489958837610000
2 31
    -1.937620405390000     0.000000000000000    -0.000000000000000
     0.000000000000000     0.845581246270000    -0.000000000000000
    -0.000000000000000    -0.000000000000000    -0.389208888070000
2 32
     0.681096006220000     0.478616249760000    -0.000000000000000
     0.478616249760000    -0.464499481240000    -0.000000000000000
    -0.000000000000000    -0.000000000000000     0.489958837610000
2 33
     0.361595599070000     0.113046451010000    -0.000000000000000
     0.113046451010000     0.231060771730000     0.000000000000000
    -0.000000000000000     0.000000000000000    -0.047034835780000
2 34
     0.361595599070000    -0.113046451010000     0.000000000000000
    -0.113046451010000     0.231060771730000     0.000000000000000
     0.000000000000000     0.000000000000000    -0.047034835780000
2 35
     0.681096006220000    -0.478616249760000    -0.000000000000000
    -0.478616249760000    -0.464499481240000     0.000000000000000
    -0.000000000000000     0.000000000000000     0.489958837610000
2 36
    -0.089911343250000     0.123682912170000     0.000000000000000
     0.123682912170000     0.205054074090000    -0.000000000000000
     0.000000000000000    -0.000000000000000     0.012062767410000
2 37
    -0.045508598010000     0.002358600070000     0.000000000000000
     0.002358600070000    -0.042785223870000    -0.000000000000000
     0.000000000000000    -0.000000000000000    -0.052651900040000
2 38
     0.165793358060000     0.000000000000000     0.000000000000000
     0.000000000000000     0.426863012740000    -0.000000000000000
     0.000000000000000    -0.000000000000000    -0.047034835780000
2 39
    -0.045508598010000    -0.002358600070000     0.000000000000000
    -0.002358600070000    -0.042785223870000    -0.000000000000000
     0.000000000000000    -0.000000000000000    -0.052651900040000
2 40
    -0.089911343250000    -0.123682912170000    -0.000000000000000
    -0.123682912170000     0.205054074090000     0.000000000000000
    -0.000000000000000     0.000000000000000     0.012062767410000
2 41
     0.024200243240000     0.189565289040000    -0.000000000000000
     0.189565289040000     0.090942487600000    -0.000000000000000
    -0.000000000000000    -0.000000000000000     0.012062767410000
2 42
    -0.592594514150000    -0.256749297980000    -0.000000000000000
    -0.256749297980000     0.809191039130000     0.000000000000000
    -0.000000000000000     0.000000000000000     0.489958837610000
2 43
    -0.592594514150000     0.256749297980000     0.000000000000000
     0.256749297980000     0.809191039130000     0.000000000000000
     0.000000000000000     0.000000000000000     0.489958837610000
2 44
     0.024200243240000    -0.189565289040000     0.000000000000000
    -0.189565289040000     0.090942487600000    -0.000000000000000
     0.000000000000000    -0.000000000000000     0.012062767410000
2 45
    -0.019396203570000    -0.000000000000000    -0.000000000000000
    -0.000000000000000    -0.019396203570000    -0.000000000000000
    -0.000000000000000    -0.000000000000000    -0.008729955130000
2 46
     0.149780773300000     1.205161639760000    -0.000000000000000
     1.205161639760000    -1.241820052530000    -0.000000000000000
    -0.000000000000000    -0.000000000000000    -0.389208888070000
2 47
   -10.379492541159999     0.000000000000000     0.000000000000000
     0.000000000000000   -26.410511783959997     0.000000000000000
     0.000000000000000     0.000000000000000    -6.160691008140000
2 48
     0.149780773300000    -1.205161639760000     0.000000000000000
    -1.205161639760000    -1.241820052530000    -0.000000000000000
     0.000000000000000    -0.000000000000000    -0.389208888070000
2 49
     0.238425196270000    -0.065882376870000    -0.000000000000000
    -0.065882376870000    -0.123282585540000    -0.000000000000000
    -0.000000000000000    -0.000000000000000     0.012062767410000
2 50
     0.238425196270000     0.065882376870000     0.000000000000000
     0.065882376870000    -0.123282585540000     0.000000000000000
     0.000000000000000     0.000000000000000     0.012062767410000
3 1
    -0.143823197190000    -0.055802505450000    -0.000000000000000
     0.055802505450000     0.235844753030000     0.000000000000000
     0.000000000000000     0.000000000000000     0.012130509450000
3 2
    -4.663411639030000    -0.262938205950000    -0.000000000000000
     0.262938205950000     2.635459145060000    -0.000000000000000
     0.000000000000000    -0.000000000000000     0.478455062140000
3 3
    63.413765889019999     0.000000000000000    -0.000000000000000
     0.000000000000000    63.413765889019999     0.000000000000000
    -0.000000000000000     0.000000000000000    14.365645568360000
3 4
    -4.663411639030000     0.262938205950000     0.000000000000000
    -0.262938205950000     2.635459145060000    -0.000000000000000
    -0.000000000000000    -0.000000000000000     0.478455062140000
3 5
    -0.143823197190000     0.055802505450000     0.000000000000000
    -0.055802505450000     0.235844753030000     0.000000000000000
    -0.000000000000000     0.000000000000000     0.012130509450000
3 6
    -0.407860169420000     0.192178642420000     0.000000000000000
     0.192178642420000    -0.185951419360000     0.000000000000000
    -0.000000000000000    -0.000000000000000    -0.071875505540000
3 7
     0.810741419010000     3.423442001160000    -0.000000000000000
     2.897565589260000    -2.838693912980000    -0.000000000000000
    -0.000000000000000     0.000000000000000     0.478455062140000
3 8
     0.810741419010000    -3.423442001160000    -0.000000000000000
    -2.897565589260000    -2.838693912980000    -0.000000000000000
    -0.000000000000000     0.000000000000000     0.478455062140000
3 9
    -0.407860169420000    -0.192178642420000    -0.000000000000000
    -0.192178642420000    -0.185951419360000     0.000000000000000
     0.000000000000000    -0.000000000000000    -0.071875505540000
3 10
    -0.242231962610000     0.000000000000000     0.000000000000000
    -0.000000000000000    -0.002380820420000    -0.000000000000000
     0.000000000000000    -0.000000000000000     0.011242296000000
3 11
     0.140927825530000     0.220203548390000    -0.000000000000000
     0.108598537490000    -0.048906269690000    -0.000000000000000
    -0.000000000000000     0.000000000000000     0.012130509450000
3 12
    -0.074997044330000     0.000000000000000     0.000000000000000
    -0.000000000000000    -0.518814544450000     0.000000000000000
    -0.000000000000000    -0.000000000000000    -0.071875505540000
3 13
     0.140927825530000    -0.220203548390000     0.000000000000000
    -0.108598537490000    -0.048906269690000    -0.000000000000000
     0.000000000000000    -0.000000000000000     0.012130509450000
3 14
    -0.062343575940000    -0.103858636560000    -0.000000000000000
    -0.103858636560000    -0.182269207090000    -0.000000000000000
     0.000000000000000     0.000000000000000     0.011242296000000
3 15
    -0.062343575940000     0.103858636560000     0.000000000000000
     0.103858636560000    -0.182269207090000    -0.000000000000000
    -0.000000000000000     0.000000000000000     0.011242296000000
3 16
    -0.062343575940000     0.103858636560000    -0.000000000000000
     0.103858636560000    -0.182269207090000     0.000000000000000
     0.000000000000000    -0.000000000000000     0.011242296000000
3 17
    -0.062343575940000    -0.103858636560000     0.000000000000000
    -0.103858636560000    -0.182269207090000     0.000000000000000
    -0.000000000000000    -0.000000000000000     0.011242296000000
3 18
     0.140927825530000    -0.108598537490000     0.000000000000000
    -0.220203548390000    -0.048906269690000    -0.000000000000000
     0.000000000000000    -0.000000000000000     0.012130509450000
3 19
    -0.074997044330000    -0.000000000000000    -0.000000000000000
     0.000000000000000    -0.518814544450000    -0.000000000000000
     0.000000000000000     0.000000000000000    -0.071875505540000
3 20
     0.140927825530000     0.108598537490000    -0.000000000000000
     0.220203548390000    -0.048906269690000     0.000000000000000
    -0.000000000000000    -0.000000000000000     0.012130509450000
3 21
    -0.242231962610000    -0.000000000000000     0.000000000000000
     0.000000000000000    -0.002380820420000    -0.000000000000000
     0.000000000000000    -0.000000000000000     0.011242296000000
3 22
    -0.407860169420000    -0.192178642420000     0.000000000000000
    -0.192178642420000    -0.185951419360000    -0.000000000000000
    -0.000000000000000     0.000000000000000    -0.071875505540000
3 23
     0.810741419010000    -2.897565589260000    -0.000000000000000
    -3.423442001160000    -2.838693912980000     0.000000000000000
    -0.000000000000000    -0.000000000000000     0.478455062140000
3 24
     0.810741419010000     2.897565589260000    -0.000000000000000
     3.423442001160000    -2.838693912980000     0.000000000000000
    -0.000000000000000    -0.000000000000000     0.478455062140000
3 25
    -0.407860169420000     0.192178642420000    -0.000000000000000
     0.192178642420000    -0.185951419360000    -0.000000000000000
     0.000000000000000     0.000000000000000    -0.071875505540000
3 26
     0.236393175290000    -0.735365547740000     0.000000000000000
    -0.735365547740000    -0.019796650310000     0.000000000000000
     0.000000000000000     0.000000000000000     0.489958837610000
3 27
   -22.402756973259997     6.941634937800000    -0.000000000000000
     6.941634937800000   -14.387247351859999     0.000000000000000
    -0.000000000000000     0.000000000000000    -6.160691008140000
3 28
   -22.402756973259997    -6.941634937800000     0.000000000000000
    -6.941634937800000   -14.387247351859999     0.000000000000000
     0.000000000000000     0.000000000000000    -6.160691008140000
3 29
     0.236393175290000     0.735365547740000    -0.000000000000000
     0.735365547740000    -0.019796650310000     0.000000000000000
    -0.000000000000000     0.000000000000000     0.489958837610000
3 30
    -0.041423536800000    -0.000000000000000     0.000000000000000
    -0.000000000000000    -0.046870285080000     0.000000000000000
     0.000000000000000     0.000000000000000    -0.052651900040000
3 31
     0.681096006220000    -0.478616249760000    -0.000000000000000
    -0.478616249760000    -0.464499481240000     0.000000000000000
    -0.000000000000000     0.000000000000000     0.489958837610000
3 32
    -1.937620405390000     0.000000000000000    -0.000000000000000
     0.000000000000000     0.845581246270000    -0.000000000000000
    -0.000000000000000    -0.000000000000000    -0.389208888070000
3 33
     0.681096006220000     0.478616249760000    -0.000000000000000
     0.478616249760000    -0.464499481240000    -0.000000000000000
    -0.000000000000000    -0.000000000000000     0.489958837610000
3 34
     0.361595599070000     0.113046451010000    -0.000000000000000
     0.113046451010000     0.231060771730000     0.000000000000000
    -0.000000000000000     0.000000000000000    -0.047034835780000
3 35
     0.361595599070000    -0.113046451010000     0.000000000000000
    -0.113046451010000     0.231060771730000     0.000000000000000
     0.000000000000000     0.000000000000000    -0.047034835780000
3 36
    -0.089911343250000    -0.123682912170000    -0.000000000000000
    -0.123682912170000     0.205054074090000     0.000000000000000
    -0.000000000000000     0.000000000000000     0.012062767410000
3 37
    -0.089911343250000     0.123682912170000     0.000000000000000
     0.123682912170000     0.205054074090000    -0.000000000000000
     0.000000000000000    -0.000000000000000     0.012062767410000
3 38
    -0.045508598010000     0.002358600070000     0.000000000000000
     0.002358600070000    -0.042785223870000    -0.000000000000000
     0.000000000000000    -0.000000000000000    -0.052651900040000
3 39
     0.165793358060000     0.000000000000000     0.000000000000000
     0.000000000000000     0.426863012740000    -0.000000000000000
     0.000000000000000    -0.000000000000000    -0.047034835780000
3 40
    -0.045508598010000    -0.002358600070000     0.000000000000000
    -0.002358600070000    -0.042785223870000    -0.000000000000000
     0.000000000000000    -0.000000000000000    -0.052651900040000
3 41
    -0.019396203570000    -0.000000000000000    -0.000000000000000
    -0.000000000000000    -0.019396203570000    -0.000000000000000
    -0.000000000000000    -0.000000000000000    -0.008729955130000
3 42
     0.024200243240000     0.189565289040000    -0.000000000000000
     0.189565289040000     0.090942487600000    -0.000000000000000
    -0.000000000000000    -0.000000000000000     0.012062767410000
3 43
    -0.592594514150000    -0.256749297980000    -0.000000000000000
    -0.256749297980000     0.809191039130000     0.000000000000000
    -0.000000000000000     0.000000000000000     0.489958837610000
3 44
    -0.592594514150000     0.256749297980000     0.000000000000000
     0.256749297980000     0.809191039130000     0.000000000000000
     0.000000000000000     0.000000000000000     0.489958837610000
3 45
     0.024200243240000    -0.189565289040000     0.000000000000000
    -0.189565289040000     0.090942487600000    -0.000000000000000
     0.000000000000000    -0.000000000000000     0.012062767410000
3 46
     0.238425196270000     0.065882376870000     0.000000000000000
     0.065882376870000    -0.123282585540000     0.000000000000000