  81   81
1 1
     7.068498962654437    -0.000000000000000     0.000000000000001
    -0.000000000000000     7.068498962654431    -0.000000000000000
     0.000000000000000     0.000000000000000     7.037026594241065
1 2
    -0.170891661926188     0.430607177219315     0.000000000000000
     0.430607177219315    -0.668114001291300    -0.000000000000000
     0.000000000000000     0.000000000000000     0.110632265582587
1 3
    -0.170891661926188     0.430607177219315     0.000000000000000
     0.430607177219315    -0.668114001291300    -0.000000000000000
    -0.000000000000000    -0.000000000000000     0.110632265582587
1 4
    -0.170891661926188    -0.430607177219315     0.000000000000000
    -0.430607177219315    -0.668114001291300    -0.000000000000000
    -0.000000000000000    -0.000000000000000     0.110632265582587
1 5
    -0.916725170973857     0.000000000000000     0.000000000000000
     0.000000000000000     0.077719507756368     0.000000000000000
    -0.000000000000000     0.000000000000000     0.110632265582587
1 6
    -0.017536534973810     0.000000000000000     0.000000000000000
     0.000000000000000    -0.017536534973810     0.000000000000000
    -0.000000000000000    -0.000000000000000     0.017625923213971
1 7
    -0.170891661926188    -0.430607177219315     0.000000000000000
    -0.430607177219315    -0.668114001291300    -0.000000000000000
    -0.000000000000000    -0.000000000000000     0.110632265582587
1 8
    -0.017536534973810     0.000000000000000     0.000000000000000
     0.000000000000000    -0.017536534973810     0.000000000000000
    -0.000000000000000    -0.000000000000000     0.017625923213971
1 9
    -0.916725170973857     0.000000000000000     0.000000000000000
     0.000000000000000     0.077719507756368     0.000000000000000
    -0.000000000000000     0.000000000000000     0.110632265582587
1 10
     0.029615703959407    -0.000000000000000    -0.000000000000000
    -0.000000000000000     0.029615703959407     0.000000000000000
     0.000000000000000     0.000000000000000    -0.372879056106320
1 11
     0.000116000655494     0.001531469665400    -0.001406669411512
     0.001531469665400    -0.001652388191655     0.002436422890191
    -0.001410684259501     0.002443376810893    -0.035285640491246
1 12
     0.000116000655494     0.001531469665400     0.001406669411512
     0.001531469665400    -0.001652388191655    -0.002436422890191
     0.001410684259501    -0.002443376810893    -0.035285640491246
1 13
     0.000116000655494    -0.001531469665400    -0.001406669411512
    -0.001531469665400    -0.001652388191655    -0.002436422890191
    -0.001410684259501    -0.002443376810893    -0.035285640491246
1 14
    -0.002536582615229     0.000000000000000    -0.002813338823023
     0.000000000000000     0.001000195079068    -0.000000000000000
    -0.002821368519001     0.000000000000000    -0.035285640491246
1 15
     0.002855323363523    -0.000000000000000     0.000000000000000
    -0.000000000000000     0.002855323363523     0.000000000000000
     0.000000000000000     0.000000000000000     0.000326675945281
1 16
     0.000116000655494    -0.001531469665400     0.001406669411512
    -0.001531469665400    -0.001652388191655     0.002436422890191
     0.001410684259501     0.002443376810893    -0.035285640491246
1 17
     0.002855323363523    -0.000000000000000     0.000000000000000
    -0.000000000000000     0.002855323363523     0.000000000000000
     0.000000000000000     0.000000000000000     0.000326675945281
1 18
    -0.002536582615229     0.000000000000000     0.002813338823023
    -0.000000000000000     0.001000195079068     0.000000000000000
     0.002821368519001     0.000000000000000    -0.035285640491246
1 19
     0.029615703959407    -0.000000000000000    -0.000000000000000
    -0.000000000000000     0.029615703959407    -0.000000000000000
     0.000000000000000     0.000000000000000    -0.372879056106320
1 20
     0.000116000655494     0.001531469665400     0.001406669411512
     0.001531469665400    -0.001652388191655    -0.002436422890191
     0.001410684259501    -0.002443376810893    -0.035285640491246
1 21
     0.000116000655494     0.001531469665400    -0.001406669411512
     0.001531469665400    -0.001652388191655     0.002436422890191
    -0.001410684259501     0.002443376810893    -0.035285640491246
1 22
     0.000116000655494    -0.001531469665400     0.001406669411512
    -0.001531469665400    -0.001652388191655     0.002436422890191
     0.001410684259501     0.002443376810893    -0.035285640491246
1 23
    -0.002536582615229     0.000000000000000     0.002813338823023
    -0.000000000000000     0.001000195079068     0.000000000000000
     0.002821368519001     0.000000000000000    -0.035285640491246
1 24
     0.002855323363523    -0.000000000000000     0.000000000000000
    -0.000000000000000     0.002855323363523    -0.000000000000000
     0.000000000000000     0.000000000000000     0.000326675945281
1 25
     0.000116000655494    -0.001531469665400    -0.001406669411512
    -0.001531469665400    -0.001652388191655    -0.002436422890191
    -0.001410684259501    -0.002443376810893    -0.035285640491246
1 26
     0.002855323363523    -0.000000000000000     0.000000000000000
    -0.000000000000000     0.002855323363523    -0.000000000000000
     0.000000000000000     0.000000000000000     0.000326675945281
1 27
    -0.002536582615229     0.000000000000000    -0.002813338823023
     0.000000000000000     0.001000195079068    -0.000000000000000
    -0.002821368519001     0.000000000000000    -0.035285640491246
1 28
    -0.522908132014296    -0.329968456097079    -0.364014473958681
    -0.329968456097079    -0.141893378110828    -0.210163854528964
    -0.620057891595204    -0.357990590625643    -0.519562740072169
1 29
    -0.096905857049566     0.048381903517688    -0.085882520205778
     0.048381903517688    -0.041039247009879     0.049584296159489
     0.005256023981943    -0.003034566860842    -0.012668797967215
1 30
    -0.013105941990035     0.000000000000000     0.000000000000000
     0.000000000000000    -0.124839162069410    -0.099168592318979
    -0.000000000000000     0.006069133721684    -0.012668797967215
1 31
    -0.001753223858782     0.041861286746866    -0.052252365208617
     0.041861286746866     0.046584026485073     0.030167917118989
    -0.043728667965181     0.025246758221001    -0.029416959040179
1 32
     0.070752651657000    -0.000000000000000     0.000000000000000
    -0.000000000000000    -0.025921849030709    -0.060335834237979
     0.000000000000000    -0.050493516442002    -0.029416959040179
1 33
    -0.096905857049566    -0.048381903517688     0.085882520205778
    -0.048381903517688    -0.041039247009879     0.049584296159489
    -0.005256023981943    -0.003034566860842    -0.012668797967215
1 34
     0.048613998840906    -0.000000000000000    -0.000000000000000
    -0.000000000000000    -0.713415508966029     0.420327709057928
     0.000000000000000     0.715981181251285    -0.519562740072169
1 35
    -0.001753223858782    -0.041861286746866     0.052252365208617
    -0.041861286746866     0.046584026485073     0.030167917118989
     0.043728667965181     0.025246758221001    -0.029416959040179
1 36
    -0.522908132014296     0.329968456097079     0.364014473958681
     0.329968456097079    -0.141893378110828    -0.210163854528964
     0.620057891595204    -0.357990590625643    -0.519562740072169
1 37
    -0.004228176953947    -0.005544953547086     0.000000000000000
    -0.005544953547086     0.002174583892161     0.000000000000000
    -0.000000000000000    -0.000000000000000     0.021954213831777
1 38
     0.004358324827938    -0.000626764790786    -0.000000000000000
    -0.000626764790786     0.003634599186580     0.000000000000000
     0.000000000000000    -0.000000000000000     0.000523034914420
1 39
     0.003272736365901    -0.000000000000000     0.000000000000000
    -0.000000000000000     0.004720187648616     0.000000000000000
     0.000000000000000     0.000000000000000     0.000523034914420
1 40
    -0.001498409806419    -0.011310864707123    -0.000000000000000
    -0.011310864707123    -0.014559071373269    -0.000000000000000
    -0.000000000000000    -0.000000000000000     0.006120038601663
1 41
    -0.021089402156694     0.000000000000000     0.000000000000000
     0.000000000000000     0.005031920977006    -0.000000000000000
    -0.000000000000000     0.000000000000000     0.006120038601663
1 42
     0.004358324827938     0.000626764790786     0.000000000000000
     0.000626764790786     0.003634599186580    -0.000000000000000
     0.000000000000000     0.000000000000000     0.000523034914420
1 43
     0.005375964315215    -0.000000000000000     0.000000000000000
    -0.000000000000000    -0.007429557377001     0.000000000000000
     0.000000000000000    -0.000000000000000     0.021954213831777
1 44
    -0.001498409806419     0.011310864707123     0.000000000000000
     0.011310864707123    -0.014559071373269    -0.000000000000000
     0.000000000000000     0.000000000000000     0.006120038601663
1 45
    -0.004228176953947     0.005544953547086     0.000000000000000
     0.005544953547086     0.002174583892161    -0.000000000000000
    -0.000000000000000     0.000000000000000     0.021954213831777
1 46
    -0.522908132014296    -0.329968456097079     0.364014473958681
    -0.329968456097079    -0.141893378110828     0.210163854528964
     0.620057891595204     0.357990590625643    -0.519562740072169
1 47
    -0.096905857049566     0.048381903517688     0.085882520205778
     0.048381903517688    -0.041039247009879    -0.049584296159489
    -0.005256023981943     0.003034566860842    -0.012668797967215
1 48
    -0.013105941990035     0.000000000000000    -0.000000000000000
     0.000000000000000    -0.124839162069410     0.099168592318979
    -0.000000000000000    -0.006069133721684    -0.012668797967215
1 49
    -0.001753223858782     0.041861286746866     0.052252365208617
     0.041861286746866     0.046584026485073    -0.030167917118989
     0.043728667965181    -0.025246758221001    -0.029416959040179
1 50
     0.070752651657000    -0.000000000000000    -0.000000000000000
    -0.000000000000000    -0.025921849030709     0.060335834237979
     0.000000000000000     0.050493516442002    -0.029416959040179
1 51
    -0.096905857049566    -0.048381903517688    -0.085882520205778
    -0.048381903517688    -0.041039247009879    -0.049584296159489
     0.005256023981943     0.003034566860842    -0.012668797967215
1 52
     0.048613998840906     0.000000000000000     0.000000000000000
    -0.000000000000000    -0.713415508966029    -0.420327709057928
     0.000000000000000    -0.715981181251285    -0.519562740072169
1 53
    -0.001753223858782    -0.041861286746866    -0.052252365208617
    -0.041861286746866     0.046584026485073    -0.030167917118989
    -0.043728667965181    -0.025246758221001    -0.029416959040179
1 54
    -0.522908132014296     0.329968456097079    -0.364014473958681
     0.329968456097079    -0.141893378110828     0.210163854528964
    -0.620057891595204     0.357990590625642    -0.519562740072169
1 55
    -0.522908132014296     0.329968456097079    -0.364014473958681
     0.329968456097079    -0.141893378110828     0.210163854528964
    -0.620057891595204     0.357990590625642    -0.519562740072169
1 56
    -0.001753223858782    -0.041861286746866    -0.052252365208617
    -0.041861286746866     0.046584026485073    -0.030167917118989
    -0.043728667965181    -0.025246758221001    -0.029416959040179
1 57
     0.048613998840906     0.000000000000000    -0.000000000000000
    -0.000000000000000    -0.713415508966029    -0.420327709057928
     0.000000000000000    -0.715981181251285    -0.519562740072169
1 58
    -0.096905857049566    -0.048381903517688    -0.085882520205778
    -0.048381903517688    -0.041039247009879    -0.049584296159489
     0.005256023981943     0.003034566860842    -0.012668797967215
1 59
     0.070752651657000    -0.000000000000000    -0.000000000000000
    -0.000000000000000    -0.025921849030709     0.060335834237979
     0.000000000000000     0.050493516442002    -0.029416959040179
1 60
    -0.001753223858782     0.041861286746866     0.052252365208617
     0.041861286746866     0.046584026485073    -0.030167917118989
     0.043728667965181    -0.025246758221001    -0.029416959040179
1 61
    -0.013105941990035     0.000000000000000    -0.000000000000000
     0.000000000000000    -0.124839162069410     0.099168592318979
    -0.000000000000000    -0.006069133721684    -0.012668797967215
1 62
    -0.096905857049566     0.048381903517688     0.085882520205778
     0.048381903517688    -0.041039247009879    -0.049584296159489
    -0.005256023981943     0.003034566860842    -0.012668797967215
1 63
    -0.522908132014296    -0.329968456097079     0.364014473958681
    -0.329968456097079    -0.141893378110828     0.210163854528964
     0.620057891595204     0.357990590625643    -0.519562740072169
1 64
    -0.004228176953947     0.005544953547086     0.000000000000000
     0.005544953547086     0.002174583892161     0.000000000000000
     0.000000000000000     0.000000000000000     0.021954213831777
1 65
    -0.001498409806419     0.011310864707123     0.000000000000000
     0.011310864707123    -0.014559071373269    -0.000000000000000
     0.000000000000000     0.000000000000000     0.006120038601663
1 66
     0.005375964315215     0.000000000000000     0.000000000000000
    -0.000000000000000    -0.007429557377001    -0.000000000000000
     0.000000000000000    -0.000000000000000     0.021954213831777
1 67
     0.004358324827938     0.000626764790786     0.000000000000000
     0.000626764790786     0.003634599186580    -0.000000000000000
     0.000000000000000     0.000000000000000     0.000523034914420
1 68
    -0.021089402156694     0.000000000000000    -0.000000000000000
     0.000000000000000     0.005031920977006    -0.000000000000000
    -0.000000000000000     0.000000000000000     0.006120038601663
1 69
    -0.001498409806419    -0.011310864707123    -0.000000000000000
    -0.011310864707123    -0.014559071373269    -0.000000000000000
    -0.000000000000000    -0.000000000000000     0.006120038601663
1 70
     0.003272736365901    -0.000000000000000     0.000000000000000
    -0.000000000000000     0.004720187648616     0.000000000000000
     0.000000000000000     0.000000000000000     0.000523034914420
1 71
     0.004358324827938    -0.000626764790786     0.000000000000000
    -0.000626764790786     0.003634599186580     0.000000000000000
     0.000000000000000     0.000000000000000     0.000523034914420
1 72
    -0.004228176953947    -0.005544953547086     0.000000000000000
    -0.005544953547086     0.002174583892161     0.000000000000000
    -0.000000000000000    -0.000000000000000     0.021954213831777
1 73
    -0.522908132014296     0.329968456097079     0.364014473958681
     0.329968456097079    -0.141893378110828    -0.210163854528964
     0.620057891595204    -0.357990590625643    -0.519562740072169
1 74
    -0.001753223858782    -0.041861286746866     0.052252365208617
    -0.041861286746866     0.046584026485073     0.030167917118989
     0.043728667965181     0.025246758221001    -0.029416959040179
1 75
     0.048613998840906     0.000000000000000    -0.000000000000000
    -0.000000000000000    -0.713415508966029     0.420327709057928
     0.000000000000000     0.715981181251285    -0.519562740072169
1 76
    -0.096905857049566    -0.048381903517688     0.085882520205778
    -0.048381903517688    -0.041039247009879     0.049584296159489
    -0.005256023981943    -0.003034566860842    -0.012668797967215
1 77
     0.070752651657000    -0.000000000000000     0.000000000000000
    -0.000000000000000    -0.025921849030709    -0.060335834237979
     0.000000000000000    -0.050493516442002    -0.029416959040179
1 78
    -0.001753223858782     0.041861286746866    -0.052252365208617
     0.041861286746866     0.046584026485073     0.030167917118989
    -0.043728667965181     0.025246758221001    -0.029416959040179
1 79
    -0.013105941990035     0.000000000000000     0.000000000000000
     0.000000000000000    -0.124839162069410    -0.099168592318979
    -0.000000000000000     0.006069133721684    -0.012668797967215
1 80
    -0.096905857049566     0.048381903517688    -0.085882520205778
     0.048381903517688    -0.041039247009879     0.049584296159489
     0.005256023981943    -0.003034566860842    -0.012668797967215
1 81
    -0.522908132014296    -0.329968456097079    -0.364014473958681
    -0.329968456097079    -0.141893378110828    -0.210163854528964
    -0.620057891595204    -0.357990590625643    -0.519562740072169
2 1
    -0.170891661926188     0.430607177219314    -0.000000000000000
     0.430607177219315    -0.668114001291300     0.000000000000000
    -0.000000000000000     0.000000000000000     0.110632265582587
2 2
     7.068498962654431     0.000000000000005    -0.000000000000000
     0.000000000000005     7.068498962654434    -0.000000000000000
     0.000000000000000    -0.000000000000000     7.037026594241063
2 3
    -0.170891661926188     0.430607177219314    -0.000000000000000
     0.430607177219315    -0.668114001291301     0.000000000000000
    -0.000000000000000     0.000000000000000     0.110632265582587
2 4
    -0.017536534973810    -0.000000000000000     0.000000000000000
    -0.000000000000000    -0.017536534973810    -0.000000000000000
     0.000000000000000     0.000000000000000     0.017625923213971
2 5
    -0.170891661926188    -0.430607177219315     0.000000000000000
    -0.430607177219315    -0.668114001291301    -0.000000000000000
     0.000000000000000     0.000000000000000     0.110632265582587
2 6
    -0.916725170973857     0.000000000000000    -0.000000000000000
    -0.000000000000000     0.077719507756368    -0.000000000000000
     0.000000000000000    -0.000000000000000     0.110632265582587
2 7
    -0.916725170973857    -0.000000000000000    -0.000000000000000
    -0.000000000000000     0.077719507756368    -0.000000000000000
    -0.000000000000000     0.000000000000000     0.110632265582587
2 8
    -0.170891661926188    -0.430607177219315    -0.000000000000000
    -0.430607177219315    -0.668114001291301    -0.000000000000000
     0.000000000000000     0.000000000000000     0.110632265582587
2 9
    -0.017536534973810    -0.000000000000000     0.000000000000000
    -0.000000000000000    -0.017536534973810    -0.000000000000000
     0.000000000000000     0.000000000000000     0.017625923213971
2 10
     0.000116000655494     0.001531469665400     0.001406669411512
     0.001531469665400    -0.001652388191655    -0.002436422890191
     0.001410684259501    -0.002443376810893    -0.035285640491246
2 11
     0.029615703959407     0.000000000000000     0.000000000000000
     0.000000000000000     0.029615703959407     0.000000000000000
    -0.000000000000000    -0.000000000000000    -0.372879056106320
2 12
     0.000116000655494     0.001531469665400    -0.001406669411512
     0.001531469665400    -0.001652388191655     0.002436422890191
    -0.001410684259501     0.002443376810893    -0.035285640491246
2 13
     0.002855323363523     0.000000000000000    -0.000000000000000
     0.000000000000000     0.002855323363523    -0.000000000000000
    -0.000000000000000    -0.000000000000000     0.000326675945281
2 14
     0.000116000655494    -0.001531469665400    -0.001406669411512
    -0.001531469665400    -0.001652388191655    -0.002436422890191
    -0.001410684259501    -0.002443376810893    -0.035285640491246
2 15
    -0.002536582615229     0.000000000000000    -0.002813338823023
    -0.000000000000000     0.001000195079068     0.000000000000000
    -0.002821368519001     0.000000000000000    -0.035285640491246
2 16
    -0.002536582615229     0.000000000000000     0.002813338823023
    -0.000000000000000     0.001000195079068     0.000000000000000
     0.002821368519001    -0.000000000000000    -0.035285640491246
2 17
     0.000116000655494    -0.001531469665400     0.001406669411512
    -0.001531469665400    -0.001652388191655     0.002436422890191
     0.001410684259501     0.002443376810893    -0.035285640491246
2 18
     0.002855323363523     0.000000000000000    -0.000000000000000
     0.000000000000000     0.002855323363523    -0.000000000000000
    -0.000000000000000    -0.000000000000000     0.000326675945281
2 19
     0.000116000655494     0.001531469665400    -0.001406669411512
     0.001531469665400    -0.001652388191655     0.002436422890191
    -0.001410684259501     0.002443376810893    -0.035285640491246
2 20
     0.029615703959407     0.000000000000000     0.000000000000000
     0.000000000000000     0.029615703959407    -0.000000000000000
    -0.000000000000000    -0.000000000000000    -0.372879056106320
2 21
     0.000116000655494     0.001531469665400     0.001406669411512
     0.001531469665400    -0.001652388191655    -0.002436422890191
     0.001410684259501    -0.002443376810893    -0.035285640491246
2 22
     0.002855323363523     0.000000000000000     0.000000000000000
     0.000000000000000     0.002855323363523    -0.000000000000000
    -0.000000000000000    -0.000000000000000     0.000326675945281
2 23
     0.000116000655494    -0.001531469665400     0.001406669411512
    -0.001531469665400    -0.001652388191655     0.002436422890191
     0.001410684259501     0.002443376810893    -0.035285640491246
2 24
    -0.002536582615229     0.000000000000000     0.002813338823023
    -0.000000000000000     0.001000195079068     0.000000000000000
     0.002821368519001    -0.000000000000000    -0.035285640491246
2 25
    -0.002536582615229     0.000000000000000    -0.002813338823023
    -0.000000000000000     0.001000195079068    -0.000000000000000
    -0.002821368519001     0.000000000000000    -0.035285640491246
2 26
     0.000116000655494    -0.001531469665400    -0.001406669411512
    -0.001531469665400    -0.001652388191655    -0.002436422890191
    -0.001410684259501    -0.002443376810893    -0.035285640491246
2 27
     0.002855323363523     0.000000000000000     0.000000000000000
     0.000000000000000     0.002855323363523    -0.000000000000000
     0.000000000000000    -0.000000000000000     0.000326675945281
2 28
    -0.013105941990035    -0.000000000000000    -0.000000000000000
    -0.000000000000000    -0.124839162069410    -0.099168592318979
    -0.000000000000000     0.006069133721684    -0.012668797967215
2 29
    -0.522908132014296    -0.329968456097079    -0.364014473958680
    -0.329968456097079    -0.141893378110828    -0.210163854528964
    -0.620057891595204    -0.357990590625643    -0.519562740072169
2 30
    -0.096905857049566     0.048381903517688    -0.085882520205778
     0.048381903517688    -0.041039247009879     0.049584296159489
     0.005256023981943    -0.003034566860842    -0.012668797967215
2 31
    -0.096905857049566    -0.048381903517688     0.085882520205778
    -0.048381903517688    -0.041039247009879     0.049584296159489
    -0.005256023981943    -0.003034566860842    -0.012668797967215
2 32
    -0.001753223858782     0.041861286746866    -0.052252365208617
     0.041861286746866     0.046584026485073     0.030167917118989
    -0.043728667965181     0.025246758221001    -0.029416959040179
2 33
     0.070752651657000    -0.000000000000000    -0.000000000000000
     0.000000000000000    -0.025921849030709    -0.060335834237979
    -0.000000000000000    -0.050493516442002    -0.029416959040179
2 34
    -0.522908132014295     0.329968456097079     0.364014473958680
     0.329968456097079    -0.141893378110828    -0.210163854528964
     0.620057891595203    -0.357990590625642    -0.519562740072169
2 35
     0.048613998840906    -0.000000000000000     0.000000000000000
    -0.000000000000000    -0.713415508966029     0.420327709057928
     0.000000000000000     0.715981181251285    -0.519562740072169
2 36
    -0.001753223858782    -0.041861286746866     0.052252365208617
    -0.041861286746866     0.046584026485073     0.030167917118989
     0.043728667965181     0.025246758221001    -0.029416959040179
2 37
     0.003272736365901     0.000000000000000    -0.000000000000000
     0.000000000000000     0.004720187648616    -0.000000000000000
    -0.000000000000000    -0.000000000000000     0.000523034914420
2 38
    -0.004228176953947    -0.005544953547086     0.000000000000000
    -0.005544953547086     0.002174583892161    -0.000000000000000
     0.000000000000000    -0.000000000000000     0.021954213831777
2 39
     0.004358324827938    -0.000626764790786     0.000000000000000
    -0.000626764790786     0.003634599186580    -0.000000000000000
     0.000000000000000    -0.000000000000000     0.000523034914420
2 40
     0.004358324827938     0.000626764790786     0.000000000000000
     0.000626764790786     0.003634599186580    -0.000000000000000
    -0.000000000000000    -0.000000000000000     0.000523034914420
2 41
    -0.001498409806419    -0.011310864707123    -0.000000000000000
    -0.011310864707123    -0.014559071373269     0.000000000000000
     0.000000000000000     0.000000000000000     0.006120038601663
2 42
    -0.021089402156694     0.000000000000000    -0.000000000000000
    -0.000000000000000     0.005031920977006    -0.000000000000000
     0.000000000000000    -0.000000000000000     0.006120038601663
2 43
    -0.004228176953947     0.005544953547086    -0.000000000000000
     0.005544953547086     0.002174583892161    -0.000000000000000
    -0.000000000000000    -0.000000000000000     0.021954213831777
2 44
     0.005375964315215    -0.000000000000000     0.000000000000000
    -0.000000000000000    -0.007429557377001    -0.000000000000000
    -0.000000000000000     0.000000000000000     0.021954213831777
2 45
    -0.001498409806419     0.011310864707123    -0.000000000000000
     0.011310864707123    -0.014559071373269     0.000000000000000
    -0.000000000000000     0.000000000000000     0.006120038601663
2 46
    -0.013105941990035    -0.000000000000000     0.000000000000000
    -0.000000000000000    -0.124839162069410     0.099168592318979
     0.000000000000000    -0.006069133721684    -0.012668797967215
2 47
    -0.522908132014296    -0.329968456097079     0.364014473958680
    -0.329968456097079    -0.141893378110828     0.210163854528964
     0.620057891595203     0.357990590625643    -0.519562740072169
2 48
    -0.096905857049566     0.048381903517688     0.085882520205778
     0.048381903517688    -0.041039247009879    -0.049584296159489
    -0.005256023981943     0.003034566860842    -0.012668797967215
2 49
    -0.096905857049566    -0.048381903517688    -0.085882520205778
    -0.048381903517688    -0.041039247009879    -0.049584296159489
     0.005256023981943     0.003034566860842    -0.012668797967215
2 50
    -0.001753223858782     0.041861286746866     0.052252365208617
     0.041861286746866     0.046584026485073    -0.030167917118989
     0.043728667965181    -0.025246758221001    -0.029416959040179
2 51
     0.070752651657000    -0.000000000000000     0.000000000000000
     0.000000000000000    -0.025921849030709     0.060335834237979
     0.000000000000000     0.050493516442002    -0.029416959040179
2 52
    -0.522908132014295     0.329968456097079    -0.364014473958680
     0.329968456097079    -0.141893378110828     0.210163854528964
    -0.620057891595204     0.357990590625643    -0.519562740072169
2 53
     0.048613998840906    -0.000000000000000    -0.000000000000000
    -0.000000000000000    -0.713415508966029    -0.420327709057928
    -0.000000000000000    -0.715981181251285    -0.519562740072169
2 54
    -0.001753223858782    -0.041861286746866    -0.052252365208617
    -0.041861286746866     0.046584026485073    -0.030167917118989
    -0.043728667965181    -0.025246758221001    -0.029416959040179
2 55
     0.048613998840906    -0.000000000000000    -0.000000000000000
    -0.000000000000000    -0.713415508966029    -0.420327709057928
    -0.000000000000000    -0.715981181251285    -0.519562740072169
2 56
    -0.522908132014295     0.329968456097079    -0.364014473958680
     0.329968456097079    -0.141893378110828     0.210163854528964
    -0.620057891595203     0.357990590625643    -0.519562740072169
2 57
    -0.001753223858782    -0.041861286746866    -0.052252365208617
    -0.041861286746866     0.046584026485073    -0.030167917118989
    -0.043728667965181    -0.025246758221001    -0.029416959040179
2 58
    -0.001753223858782     0.041861286746866     0.052252365208617
     0.041861286746866     0.046584026485073    -0.030167917118989
     0.043728667965181    -0.025246758221001    -0.029416959040179
2 59
    -0.096905857049566    -0.048381903517688    -0.085882520205778
    -0.048381903517688    -0.041039247009879    -0.049584296159489
     0.005256023981943     0.003034566860842    -0.012668797967215
2 60
     0.070752651657000    -0.000000000000000     0.000000000000000
     0.000000000000000    -0.025921849030709     0.060335834237979
     0.000000000000000     0.050493516442002    -0.029416959040179
2 61
    -0.522908132014296    -0.329968456097079     0.364014473958680
    -0.329968456097079    -0.141893378110828     0.210163854528964
     0.620057891595203     0.357990590625643    -0.519562740072169
2 62
    -0.013105941990035    -0.000000000000000     0.000000000000000
    -0.000000000000000    -0.124839162069410     0.099168592318979
    -0.000000000000000    -0.006069133721684    -0.012668797967215
2 63
    -0.096905857049566     0.048381903517688     0.085882520205778
     0.048381903517688    -0.041039247009879    -0.049584296159489
    -0.005256023981943     0.003034566860842    -0.012668797967215
2 64
     0.005375964315215    -0.000000000000000     0.000000000000000
    -0.000000000000000    -0.007429557377001    -0.000000000000000
    -0.000000000000000     0.000000000000000     0.021954213831777
2 65
    -0.004228176953947     0.005544953547086    -0.000000000000000